 Entering Gaussian System, Link 0=g16
 Initial command:
 /opt/g16/g16/l1.exe "/s/gio/Gau-14293.inp" -scrdir="/s/gio/"
 Entering Link 1 = /opt/g16/g16/l1.exe PID=     14295.
  
 Copyright (c) 1988,1990,1992,1993,1995,1998,2003,2009,2016,
            Gaussian, Inc.  All Rights Reserved.
  
 This is part of the Gaussian(R) 16 program.  It is based on
 the Gaussian(R) 09 system (copyright 2009, Gaussian, Inc.),
 the Gaussian(R) 03 system (copyright 2003, Gaussian, Inc.),
 the Gaussian(R) 98 system (copyright 1998, Gaussian, Inc.),
 the Gaussian(R) 94 system (copyright 1995, Gaussian, Inc.),
 the Gaussian 92(TM) system (copyright 1992, Gaussian, Inc.),
 the Gaussian 90(TM) system (copyright 1990, Gaussian, Inc.),
 the Gaussian 88(TM) system (copyright 1988, Gaussian, Inc.),
 the Gaussian 86(TM) system (copyright 1986, Carnegie Mellon
 University), and the Gaussian 82(TM) system (copyright 1983,
 Carnegie Mellon University). Gaussian is a federally registered
 trademark of Gaussian, Inc.
  
 This software contains proprietary and confidential information,
 including trade secrets, belonging to Gaussian, Inc.
  
 This software is provided under written license and may be
 used, copied, transmitted, or stored only in accord with that
 written license.
  
 The following legend is applicable only to US Government
 contracts under FAR:
  
                    RESTRICTED RIGHTS LEGEND
  
 Use, reproduction and disclosure by the US Government is
 subject to restrictions as set forth in subparagraphs (a)
 and (c) of the Commercial Computer Software - Restricted
 Rights clause in FAR 52.227-19.
  
 Gaussian, Inc.
 340 Quinnipiac St., Bldg. 40, Wallingford CT 06492
  
  
 ---------------------------------------------------------------
 Warning -- This program may not be used in any manner that
 competes with the business of Gaussian, Inc. or will provide
 assistance to any competitor of Gaussian, Inc.  The licensee
 of this program is prohibited from giving any competitor of
 Gaussian, Inc. access to this program.  By using this program,
 the user acknowledges that Gaussian, Inc. is engaged in the
 business of creating and licensing software in the field of
 computational chemistry and represents and warrants to the
 licensee that it is not a competitor of Gaussian, Inc. and that
 it will not use this program in any manner prohibited above.
 ---------------------------------------------------------------
  
 Cite this work as:
 Gaussian 16, Revision A.03,
 M. J. Frisch, G. W. Trucks, H. B. Schlegel, G. E. Scuseria, 
 M. A. Robb, J. R. Cheeseman, G. Scalmani, V. Barone, 
 G. A. Petersson, H. Nakatsuji, X. Li, M. Caricato, A. V. Marenich, 
 J. Bloino, B. G. Janesko, R. Gomperts, B. Mennucci, H. P. Hratchian, 
 J. V. Ortiz, A. F. Izmaylov, J. L. Sonnenberg, D. Williams-Young, 
 F. Ding, F. Lipparini, F. Egidi, J. Goings, B. Peng, A. Petrone, 
 T. Henderson, D. Ranasinghe, V. G. Zakrzewski, J. Gao, N. Rega, 
 G. Zheng, W. Liang, M. Hada, M. Ehara, K. Toyota, R. Fukuda, 
 J. Hasegawa, M. Ishida, T. Nakajima, Y. Honda, O. Kitao, H. Nakai, 
 T. Vreven, K. Throssell, J. A. Montgomery, Jr., J. E. Peralta, 
 F. Ogliaro, M. J. Bearpark, J. J. Heyd, E. N. Brothers, K. N. Kudin, 
 V. N. Staroverov, T. A. Keith, R. Kobayashi, J. Normand, 
 K. Raghavachari, A. P. Rendell, J. C. Burant, S. S. Iyengar, 
 J. Tomasi, M. Cossi, J. M. Millam, M. Klene, C. Adamo, R. Cammi, 
 J. W. Ochterski, R. L. Martin, K. Morokuma, O. Farkas, 
 J. B. Foresman, and D. J. Fox, Gaussian, Inc., Wallingford CT, 2016.
 
 ******************************************
 Gaussian 16:  EM64L-G16RevA.03 25-Dec-2016
                 7-Feb-2023 
 ******************************************
 %nprocshared=20
 Will use up to   20 processors via shared memory.
 %mem=12GB
 %chk=ovalene ground opt freq disp.chk
 ----------------------------------------------------------------------
 # opt=tight freq=(hpmodes,savenormalmodes) b3lyp/6-311++g(2d,2p) geom=
 connectivity empiricaldispersion=gd3bj
 ----------------------------------------------------------------------
 1/7=10,18=20,19=15,26=3,38=1,57=2/1,3;
 2/9=110,12=2,17=6,18=5,40=1/2;
 3/5=4,6=6,7=1212,11=2,25=1,30=1,71=1,74=-5,124=41/1,2,3;
 4//1;
 5/5=2,38=5/2;
 6/7=2,8=2,9=2,10=2,28=1/1;
 7/92=1/1,2,3,16;
 1/7=10,18=20,19=15,26=3/3(2);
 2/9=110/2;
 99//99;
 2/9=110/2;
 3/5=4,6=6,7=1212,11=2,25=1,30=1,71=1,74=-5,124=41/1,2,3;
 4/5=5,16=3,69=1/1;
 5/5=2,38=5/2;
 7/92=1/1,2,3,16;
 1/7=10,18=20,19=15,26=3/3(-5);
 2/9=110/2;
 6/7=2,8=2,9=2,10=2,19=2,28=1/1;
 99/9=1/99;
 --------------------------------------------------------
 Ovalene ground state optimization + freq with dispersion
 --------------------------------------------------------
 Symbolic Z-matrix:
 Charge =  0 Multiplicity = 1
 C                     0.        0.71136   2.45758 
 C                     0.        1.42239   1.22449 
 C                     0.        0.71557  0. 
 C                     0.       -0.71557  0. 
 C                     0.       -1.42239   1.22449 
 C                     0.       -0.71136   2.45758 
 C                     0.        1.42239  -1.22449 
 C                     0.       -1.42239  -1.22449 
 C                     0.       -0.71136  -2.45758 
 C                     0.        0.71136  -2.45758 
 C                     0.       -1.41886  -3.68627 
 C                     0.       -2.8484   -3.65489 
 C                     0.       -3.53228  -2.47952 
 C                     0.       -2.85003  -1.2208 
 C                     0.       -3.52947  0. 
 C                     0.       -2.85003   1.2208 
 H                     0.       -4.61241   0. 
 H                     0.       -3.38447  -4.59513 
 H                     0.       -4.61446  -2.47915 
 C                     0.        2.85003   1.2208 
 C                     0.        3.52947  0. 
 C                     0.        2.85003  -1.2208 
 H                     0.        4.61241   0. 
 C                     0.        3.53228  -2.47952 
 C                     0.        2.8484   -3.65489 
 C                     0.        1.41886  -3.68627 
 H                     0.        4.61446  -2.47915 
 H                     0.        3.38447  -4.59513 
 C                     0.       -0.68793  -4.89297 
 H                     0.       -1.22798  -5.83086 
 C                     0.        0.68793  -4.89297 
 H                     0.        1.22798  -5.83086 
 C                     0.       -3.53228   2.47952 
 C                     0.       -2.8484    3.65489 
 H                     0.       -3.38447   4.59513 
 C                     0.       -1.41886   3.68627 
 H                     0.       -4.61446   2.47915 
 C                     0.       -0.68793   4.89297 
 H                     0.       -1.22798   5.83086 
 C                     0.        1.41886   3.68627 
 C                     0.        3.53228   2.47952 
 C                     0.        2.8484    3.65489 
 H                     0.        3.38447   4.59513 
 C                     0.        0.68793   4.89297 
 H                     0.        1.22798   5.83086 
 H                     0.        4.61446   2.47915 
 
 GradGradGradGradGradGradGradGradGradGradGradGradGradGradGradGradGradGrad
 Berny optimization.
 Initialization pass.
                           ----------------------------
                           !    Initial Parameters    !
                           ! (Angstroms and Degrees)  !
 --------------------------                            --------------------------
 ! Name  Definition              Value          Derivative Info.                !
 --------------------------------------------------------------------------------
 ! R1    R(1,2)                  1.4234         estimate D2E/DX2                !
 ! R2    R(1,6)                  1.4227         estimate D2E/DX2                !
 ! R3    R(1,40)                 1.4178         estimate D2E/DX2                !
 ! R4    R(2,3)                  1.4138         estimate D2E/DX2                !
 ! R5    R(2,20)                 1.4276         estimate D2E/DX2                !
 ! R6    R(3,4)                  1.4311         estimate D2E/DX2                !
 ! R7    R(3,7)                  1.4138         estimate D2E/DX2                !
 ! R8    R(4,5)                  1.4138         estimate D2E/DX2                !
 ! R9    R(4,8)                  1.4138         estimate D2E/DX2                !
 ! R10   R(5,6)                  1.4234         estimate D2E/DX2                !
 ! R11   R(5,16)                 1.4276         estimate D2E/DX2                !
 ! R12   R(6,36)                 1.4178         estimate D2E/DX2                !
 ! R13   R(7,10)                 1.4234         estimate D2E/DX2                !
 ! R14   R(7,22)                 1.4276         estimate D2E/DX2                !
 ! R15   R(8,9)                  1.4234         estimate D2E/DX2                !
 ! R16   R(8,14)                 1.4276         estimate D2E/DX2                !
 ! R17   R(9,10)                 1.4227         estimate D2E/DX2                !
 ! R18   R(9,11)                 1.4178         estimate D2E/DX2                !
 ! R19   R(10,26)                1.4178         estimate D2E/DX2                !
 ! R20   R(11,12)                1.4299         estimate D2E/DX2                !
 ! R21   R(11,29)                1.4108         estimate D2E/DX2                !
 ! R22   R(12,13)                1.3598         estimate D2E/DX2                !
 ! R23   R(12,18)                1.0823         estimate D2E/DX2                !
 ! R24   R(13,14)                1.4317         estimate D2E/DX2                !
 ! R25   R(13,19)                1.0822         estimate D2E/DX2                !
 ! R26   R(14,15)                1.3971         estimate D2E/DX2                !
 ! R27   R(15,16)                1.3971         estimate D2E/DX2                !
 ! R28   R(15,17)                1.0829         estimate D2E/DX2                !
 ! R29   R(16,33)                1.4317         estimate D2E/DX2                !
 ! R30   R(20,21)                1.3971         estimate D2E/DX2                !
 ! R31   R(20,41)                1.4317         estimate D2E/DX2                !
 ! R32   R(21,22)                1.3971         estimate D2E/DX2                !
 ! R33   R(21,23)                1.0829         estimate D2E/DX2                !
 ! R34   R(22,24)                1.4317         estimate D2E/DX2                !
 ! R35   R(24,25)                1.3598         estimate D2E/DX2                !
 ! R36   R(24,27)                1.0822         estimate D2E/DX2                !
 ! R37   R(25,26)                1.4299         estimate D2E/DX2                !
 ! R38   R(25,28)                1.0823         estimate D2E/DX2                !
 ! R39   R(26,31)                1.4108         estimate D2E/DX2                !
 ! R40   R(29,30)                1.0823         estimate D2E/DX2                !
 ! R41   R(29,31)                1.3759         estimate D2E/DX2                !
 ! R42   R(31,32)                1.0823         estimate D2E/DX2                !
 ! R43   R(33,34)                1.3598         estimate D2E/DX2                !
 ! R44   R(33,37)                1.0822         estimate D2E/DX2                !
 ! R45   R(34,35)                1.0823         estimate D2E/DX2                !
 ! R46   R(34,36)                1.4299         estimate D2E/DX2                !
 ! R47   R(36,38)                1.4108         estimate D2E/DX2                !
 ! R48   R(38,39)                1.0823         estimate D2E/DX2                !
 ! R49   R(38,44)                1.3759         estimate D2E/DX2                !
 ! R50   R(40,42)                1.4299         estimate D2E/DX2                !
 ! R51   R(40,44)                1.4108         estimate D2E/DX2                !
 ! R52   R(41,42)                1.3598         estimate D2E/DX2                !
 ! R53   R(41,46)                1.0822         estimate D2E/DX2                !
 ! R54   R(42,43)                1.0823         estimate D2E/DX2                !
 ! R55   R(44,45)                1.0823         estimate D2E/DX2                !
 ! A1    A(2,1,6)              119.9685         estimate D2E/DX2                !
 ! A2    A(2,1,40)             120.0976         estimate D2E/DX2                !
 ! A3    A(6,1,40)             119.9339         estimate D2E/DX2                !
 ! A4    A(1,2,3)              120.0364         estimate D2E/DX2                !
 ! A5    A(1,2,20)             120.1165         estimate D2E/DX2                !
 ! A6    A(3,2,20)             119.847          estimate D2E/DX2                !
 ! A7    A(2,3,4)              119.9951         estimate D2E/DX2                !
 ! A8    A(2,3,7)              120.0098         estimate D2E/DX2                !
 ! A9    A(4,3,7)              119.9951         estimate D2E/DX2                !
 ! A10   A(3,4,5)              119.9951         estimate D2E/DX2                !
 ! A11   A(3,4,8)              119.9951         estimate D2E/DX2                !
 ! A12   A(5,4,8)              120.0098         estimate D2E/DX2                !
 ! A13   A(4,5,6)              120.0364         estimate D2E/DX2                !
 ! A14   A(4,5,16)             119.847          estimate D2E/DX2                !
 ! A15   A(6,5,16)             120.1165         estimate D2E/DX2                !
 ! A16   A(1,6,5)              119.9685         estimate D2E/DX2                !
 ! A17   A(1,6,36)             119.9339         estimate D2E/DX2                !
 ! A18   A(5,6,36)             120.0976         estimate D2E/DX2                !
 ! A19   A(3,7,10)             120.0364         estimate D2E/DX2                !
 ! A20   A(3,7,22)             119.847          estimate D2E/DX2                !
 ! A21   A(10,7,22)            120.1165         estimate D2E/DX2                !
 ! A22   A(4,8,9)              120.0364         estimate D2E/DX2                !
 ! A23   A(4,8,14)             119.847          estimate D2E/DX2                !
 ! A24   A(9,8,14)             120.1165         estimate D2E/DX2                !
 ! A25   A(8,9,10)             119.9685         estimate D2E/DX2                !
 ! A26   A(8,9,11)             120.0976         estimate D2E/DX2                !
 ! A27   A(10,9,11)            119.9339         estimate D2E/DX2                !
 ! A28   A(7,10,9)             119.9685         estimate D2E/DX2                !
 ! A29   A(7,10,26)            120.0976         estimate D2E/DX2                !
 ! A30   A(9,10,26)            119.9339         estimate D2E/DX2                !
 ! A31   A(9,11,12)            118.6765         estimate D2E/DX2                !
 ! A32   A(9,11,29)            118.862          estimate D2E/DX2                !
 ! A33   A(12,11,29)           122.4615         estimate D2E/DX2                !
 ! A34   A(11,12,13)           121.45           estimate D2E/DX2                !
 ! A35   A(11,12,18)           118.4316         estimate D2E/DX2                !
 ! A36   A(13,12,18)           120.1184         estimate D2E/DX2                !
 ! A37   A(12,13,14)           121.3492         estimate D2E/DX2                !
 ! A38   A(12,13,19)           120.2123         estimate D2E/DX2                !
 ! A39   A(14,13,19)           118.4385         estimate D2E/DX2                !
 ! A40   A(8,14,13)            118.3102         estimate D2E/DX2                !
 ! A41   A(8,14,15)            119.2464         estimate D2E/DX2                !
 ! A42   A(13,14,15)           122.4435         estimate D2E/DX2                !
 ! A43   A(14,15,16)           121.8034         estimate D2E/DX2                !
 ! A44   A(14,15,17)           119.0983         estimate D2E/DX2                !
 ! A45   A(16,15,17)           119.0983         estimate D2E/DX2                !
 ! A46   A(5,16,15)            119.2464         estimate D2E/DX2                !
 ! A47   A(5,16,33)            118.3102         estimate D2E/DX2                !
 ! A48   A(15,16,33)           122.4435         estimate D2E/DX2                !
 ! A49   A(2,20,21)            119.2464         estimate D2E/DX2                !
 ! A50   A(2,20,41)            118.3102         estimate D2E/DX2                !
 ! A51   A(21,20,41)           122.4435         estimate D2E/DX2                !
 ! A52   A(20,21,22)           121.8034         estimate D2E/DX2                !
 ! A53   A(20,21,23)           119.0983         estimate D2E/DX2                !
 ! A54   A(22,21,23)           119.0983         estimate D2E/DX2                !
 ! A55   A(7,22,21)            119.2464         estimate D2E/DX2                !
 ! A56   A(7,22,24)            118.3102         estimate D2E/DX2                !
 ! A57   A(21,22,24)           122.4435         estimate D2E/DX2                !
 ! A58   A(22,24,25)           121.3492         estimate D2E/DX2                !
 ! A59   A(22,24,27)           118.4385         estimate D2E/DX2                !
 ! A60   A(25,24,27)           120.2123         estimate D2E/DX2                !
 ! A61   A(24,25,26)           121.45           estimate D2E/DX2                !
 ! A62   A(24,25,28)           120.1184         estimate D2E/DX2                !
 ! A63   A(26,25,28)           118.4316         estimate D2E/DX2                !
 ! A64   A(10,26,25)           118.6765         estimate D2E/DX2                !
 ! A65   A(10,26,31)           118.862          estimate D2E/DX2                !
 ! A66   A(25,26,31)           122.4615         estimate D2E/DX2                !
 ! A67   A(11,29,30)           118.8624         estimate D2E/DX2                !
 ! A68   A(11,29,31)           121.2041         estimate D2E/DX2                !
 ! A69   A(30,29,31)           119.9335         estimate D2E/DX2                !
 ! A70   A(26,31,29)           121.2041         estimate D2E/DX2                !
 ! A71   A(26,31,32)           118.8624         estimate D2E/DX2                !
 ! A72   A(29,31,32)           119.9335         estimate D2E/DX2                !
 ! A73   A(16,33,34)           121.3492         estimate D2E/DX2                !
 ! A74   A(16,33,37)           118.4385         estimate D2E/DX2                !
 ! A75   A(34,33,37)           120.2123         estimate D2E/DX2                !
 ! A76   A(33,34,35)           120.1184         estimate D2E/DX2                !
 ! A77   A(33,34,36)           121.45           estimate D2E/DX2                !
 ! A78   A(35,34,36)           118.4317         estimate D2E/DX2                !
 ! A79   A(6,36,34)            118.6765         estimate D2E/DX2                !
 ! A80   A(6,36,38)            118.862          estimate D2E/DX2                !
 ! A81   A(34,36,38)           122.4615         estimate D2E/DX2                !
 ! A82   A(36,38,39)           118.8624         estimate D2E/DX2                !
 ! A83   A(36,38,44)           121.2041         estimate D2E/DX2                !
 ! A84   A(39,38,44)           119.9335         estimate D2E/DX2                !
 ! A85   A(1,40,42)            118.6765         estimate D2E/DX2                !
 ! A86   A(1,40,44)            118.862          estimate D2E/DX2                !
 ! A87   A(42,40,44)           122.4615         estimate D2E/DX2                !
 ! A88   A(20,41,42)           121.3492         estimate D2E/DX2                !
 ! A89   A(20,41,46)           118.4385         estimate D2E/DX2                !
 ! A90   A(42,41,46)           120.2123         estimate D2E/DX2                !
 ! A91   A(40,42,41)           121.45           estimate D2E/DX2                !
 ! A92   A(40,42,43)           118.4317         estimate D2E/DX2                !
 ! A93   A(41,42,43)           120.1184         estimate D2E/DX2                !
 ! A94   A(38,44,40)           121.2041         estimate D2E/DX2                !
 ! A95   A(38,44,45)           119.9335         estimate D2E/DX2                !
 ! A96   A(40,44,45)           118.8624         estimate D2E/DX2                !
 ! D1    D(6,1,2,3)              0.0            estimate D2E/DX2                !
 ! D2    D(6,1,2,20)           180.0            estimate D2E/DX2                !
 ! D3    D(40,1,2,3)           180.0            estimate D2E/DX2                !
 ! D4    D(40,1,2,20)            0.0            estimate D2E/DX2                !
 ! D5    D(2,1,6,5)              0.0            estimate D2E/DX2                !
 ! D6    D(2,1,6,36)           180.0            estimate D2E/DX2                !
 ! D7    D(40,1,6,5)           180.0            estimate D2E/DX2                !
 ! D8    D(40,1,6,36)            0.0            estimate D2E/DX2                !
 ! D9    D(2,1,40,42)            0.0            estimate D2E/DX2                !
 ! D10   D(2,1,40,44)          180.0            estimate D2E/DX2                !
 ! D11   D(6,1,40,42)          180.0            estimate D2E/DX2                !
 ! D12   D(6,1,40,44)            0.0            estimate D2E/DX2                !
 ! D13   D(1,2,3,4)              0.0            estimate D2E/DX2                !
 ! D14   D(1,2,3,7)            180.0            estimate D2E/DX2                !
 ! D15   D(20,2,3,4)           180.0            estimate D2E/DX2                !
 ! D16   D(20,2,3,7)             0.0            estimate D2E/DX2                !
 ! D17   D(1,2,20,21)          180.0            estimate D2E/DX2                !
 ! D18   D(1,2,20,41)            0.0            estimate D2E/DX2                !
 ! D19   D(3,2,20,21)            0.0            estimate D2E/DX2                !
 ! D20   D(3,2,20,41)          180.0            estimate D2E/DX2                !
 ! D21   D(2,3,4,5)              0.0            estimate D2E/DX2                !
 ! D22   D(2,3,4,8)            180.0            estimate D2E/DX2                !
 ! D23   D(7,3,4,5)            180.0            estimate D2E/DX2                !
 ! D24   D(7,3,4,8)              0.0            estimate D2E/DX2                !
 ! D25   D(2,3,7,10)           180.0            estimate D2E/DX2                !
 ! D26   D(2,3,7,22)             0.0            estimate D2E/DX2                !
 ! D27   D(4,3,7,10)             0.0            estimate D2E/DX2                !
 ! D28   D(4,3,7,22)           180.0            estimate D2E/DX2                !
 ! D29   D(3,4,5,6)              0.0            estimate D2E/DX2                !
 ! D30   D(3,4,5,16)           180.0            estimate D2E/DX2                !
 ! D31   D(8,4,5,6)            180.0            estimate D2E/DX2                !
 ! D32   D(8,4,5,16)             0.0            estimate D2E/DX2                !
 ! D33   D(3,4,8,9)              0.0            estimate D2E/DX2                !
 ! D34   D(3,4,8,14)           180.0            estimate D2E/DX2                !
 ! D35   D(5,4,8,9)            180.0            estimate D2E/DX2                !
 ! D36   D(5,4,8,14)             0.0            estimate D2E/DX2                !
 ! D37   D(4,5,6,1)              0.0            estimate D2E/DX2                !
 ! D38   D(4,5,6,36)           180.0            estimate D2E/DX2                !
 ! D39   D(16,5,6,1)           180.0            estimate D2E/DX2                !
 ! D40   D(16,5,6,36)            0.0            estimate D2E/DX2                !
 ! D41   D(4,5,16,15)            0.0            estimate D2E/DX2                !
 ! D42   D(4,5,16,33)          180.0            estimate D2E/DX2                !
 ! D43   D(6,5,16,15)          180.0            estimate D2E/DX2                !
 ! D44   D(6,5,16,33)            0.0            estimate D2E/DX2                !
 ! D45   D(1,6,36,34)          180.0            estimate D2E/DX2                !
 ! D46   D(1,6,36,38)            0.0            estimate D2E/DX2                !
 ! D47   D(5,6,36,34)            0.0            estimate D2E/DX2                !
 ! D48   D(5,6,36,38)          180.0            estimate D2E/DX2                !
 ! D49   D(3,7,10,9)             0.0            estimate D2E/DX2                !
 ! D50   D(3,7,10,26)          180.0            estimate D2E/DX2                !
 ! D51   D(22,7,10,9)          180.0            estimate D2E/DX2                !
 ! D52   D(22,7,10,26)           0.0            estimate D2E/DX2                !
 ! D53   D(3,7,22,21)            0.0            estimate D2E/DX2                !
 ! D54   D(3,7,22,24)          180.0            estimate D2E/DX2                !
 ! D55   D(10,7,22,21)         180.0            estimate D2E/DX2                !
 ! D56   D(10,7,22,24)           0.0            estimate D2E/DX2                !
 ! D57   D(4,8,9,10)             0.0            estimate D2E/DX2                !
 ! D58   D(4,8,9,11)           180.0            estimate D2E/DX2                !
 ! D59   D(14,8,9,10)          180.0            estimate D2E/DX2                !
 ! D60   D(14,8,9,11)            0.0            estimate D2E/DX2                !
 ! D61   D(4,8,14,13)          180.0            estimate D2E/DX2                !
 ! D62   D(4,8,14,15)            0.0            estimate D2E/DX2                !
 ! D63   D(9,8,14,13)            0.0            estimate D2E/DX2                !
 ! D64   D(9,8,14,15)          180.0            estimate D2E/DX2                !
 ! D65   D(8,9,10,7)             0.0            estimate D2E/DX2                !
 ! D66   D(8,9,10,26)          180.0            estimate D2E/DX2                !
 ! D67   D(11,9,10,7)          180.0            estimate D2E/DX2                !
 ! D68   D(11,9,10,26)           0.0            estimate D2E/DX2                !
 ! D69   D(8,9,11,12)            0.0            estimate D2E/DX2                !
 ! D70   D(8,9,11,29)          180.0            estimate D2E/DX2                !
 ! D71   D(10,9,11,12)         180.0            estimate D2E/DX2                !
 ! D72   D(10,9,11,29)           0.0            estimate D2E/DX2                !
 ! D73   D(7,10,26,25)           0.0            estimate D2E/DX2                !
 ! D74   D(7,10,26,31)         180.0            estimate D2E/DX2                !
 ! D75   D(9,10,26,25)         180.0            estimate D2E/DX2                !
 ! D76   D(9,10,26,31)           0.0            estimate D2E/DX2                !
 ! D77   D(9,11,12,13)           0.0            estimate D2E/DX2                !
 ! D78   D(9,11,12,18)         180.0            estimate D2E/DX2                !
 ! D79   D(29,11,12,13)        180.0            estimate D2E/DX2                !
 ! D80   D(29,11,12,18)          0.0            estimate D2E/DX2                !
 ! D81   D(9,11,29,30)         180.0            estimate D2E/DX2                !
 ! D82   D(9,11,29,31)           0.0            estimate D2E/DX2                !
 ! D83   D(12,11,29,30)          0.0            estimate D2E/DX2                !
 ! D84   D(12,11,29,31)        180.0            estimate D2E/DX2                !
 ! D85   D(11,12,13,14)          0.0            estimate D2E/DX2                !
 ! D86   D(11,12,13,19)        180.0            estimate D2E/DX2                !
 ! D87   D(18,12,13,14)        180.0            estimate D2E/DX2                !
 ! D88   D(18,12,13,19)          0.0            estimate D2E/DX2                !
 ! D89   D(12,13,14,8)           0.0            estimate D2E/DX2                !
 ! D90   D(12,13,14,15)        180.0            estimate D2E/DX2                !
 ! D91   D(19,13,14,8)         180.0            estimate D2E/DX2                !
 ! D92   D(19,13,14,15)          0.0            estimate D2E/DX2                !
 ! D93   D(8,14,15,16)           0.0            estimate D2E/DX2                !
 ! D94   D(8,14,15,17)         180.0            estimate D2E/DX2                !
 ! D95   D(13,14,15,16)        180.0            estimate D2E/DX2                !
 ! D96   D(13,14,15,17)          0.0            estimate D2E/DX2                !
 ! D97   D(14,15,16,5)           0.0            estimate D2E/DX2                !
 ! D98   D(14,15,16,33)        180.0            estimate D2E/DX2                !
 ! D99   D(17,15,16,5)         180.0            estimate D2E/DX2                !
 ! D100  D(17,15,16,33)          0.0            estimate D2E/DX2                !
 ! D101  D(5,16,33,34)           0.0            estimate D2E/DX2                !
 ! D102  D(5,16,33,37)         180.0            estimate D2E/DX2                !
 ! D103  D(15,16,33,34)        180.0            estimate D2E/DX2                !
 ! D104  D(15,16,33,37)          0.0            estimate D2E/DX2                !
 ! D105  D(2,20,21,22)           0.0            estimate D2E/DX2                !
 ! D106  D(2,20,21,23)         180.0            estimate D2E/DX2                !
 ! D107  D(41,20,21,22)        180.0            estimate D2E/DX2                !
 ! D108  D(41,20,21,23)          0.0            estimate D2E/DX2                !
 ! D109  D(2,20,41,42)           0.0            estimate D2E/DX2                !
 ! D110  D(2,20,41,46)         180.0            estimate D2E/DX2                !
 ! D111  D(21,20,41,42)        180.0            estimate D2E/DX2                !
 ! D112  D(21,20,41,46)          0.0            estimate D2E/DX2                !
 ! D113  D(20,21,22,7)           0.0            estimate D2E/DX2                !
 ! D114  D(20,21,22,24)        180.0            estimate D2E/DX2                !
 ! D115  D(23,21,22,7)         180.0            estimate D2E/DX2                !
 ! D116  D(23,21,22,24)          0.0            estimate D2E/DX2                !
 ! D117  D(7,22,24,25)           0.0            estimate D2E/DX2                !
 ! D118  D(7,22,24,27)         180.0            estimate D2E/DX2                !
 ! D119  D(21,22,24,25)        180.0            estimate D2E/DX2                !
 ! D120  D(21,22,24,27)          0.0            estimate D2E/DX2                !
 ! D121  D(22,24,25,26)          0.0            estimate D2E/DX2                !
 ! D122  D(22,24,25,28)        180.0            estimate D2E/DX2                !
 ! D123  D(27,24,25,26)        180.0            estimate D2E/DX2                !
 ! D124  D(27,24,25,28)          0.0            estimate D2E/DX2                !
 ! D125  D(24,25,26,10)          0.0            estimate D2E/DX2                !
 ! D126  D(24,25,26,31)        180.0            estimate D2E/DX2                !
 ! D127  D(28,25,26,10)        180.0            estimate D2E/DX2                !
 ! D128  D(28,25,26,31)          0.0            estimate D2E/DX2                !
 ! D129  D(10,26,31,29)          0.0            estimate D2E/DX2                !
 ! D130  D(10,26,31,32)        180.0            estimate D2E/DX2                !
 ! D131  D(25,26,31,29)        180.0            estimate D2E/DX2                !
 ! D132  D(25,26,31,32)          0.0            estimate D2E/DX2                !
 ! D133  D(11,29,31,26)          0.0            estimate D2E/DX2                !
 ! D134  D(11,29,31,32)        180.0            estimate D2E/DX2                !
 ! D135  D(30,29,31,26)        180.0            estimate D2E/DX2                !
 ! D136  D(30,29,31,32)          0.0            estimate D2E/DX2                !
 ! D137  D(16,33,34,35)        180.0            estimate D2E/DX2                !
 ! D138  D(16,33,34,36)          0.0            estimate D2E/DX2                !
 ! D139  D(37,33,34,35)          0.0            estimate D2E/DX2                !
 ! D140  D(37,33,34,36)        180.0            estimate D2E/DX2                !
 ! D141  D(33,34,36,6)           0.0            estimate D2E/DX2                !
 ! D142  D(33,34,36,38)        180.0            estimate D2E/DX2                !
 ! D143  D(35,34,36,6)         180.0            estimate D2E/DX2                !
 ! D144  D(35,34,36,38)          0.0            estimate D2E/DX2                !
 ! D145  D(6,36,38,39)         180.0            estimate D2E/DX2                !
 ! D146  D(6,36,38,44)           0.0            estimate D2E/DX2                !
 ! D147  D(34,36,38,39)          0.0            estimate D2E/DX2                !
 ! D148  D(34,36,38,44)        180.0            estimate D2E/DX2                !
 ! D149  D(36,38,44,40)          0.0            estimate D2E/DX2                !
 ! D150  D(36,38,44,45)        180.0            estimate D2E/DX2                !
 ! D151  D(39,38,44,40)        180.0            estimate D2E/DX2                !
 ! D152  D(39,38,44,45)          0.0            estimate D2E/DX2                !
 ! D153  D(1,40,42,41)           0.0            estimate D2E/DX2                !
 ! D154  D(1,40,42,43)         180.0            estimate D2E/DX2                !
 ! D155  D(44,40,42,41)        180.0            estimate D2E/DX2                !
 ! D156  D(44,40,42,43)          0.0            estimate D2E/DX2                !
 ! D157  D(1,40,44,38)           0.0            estimate D2E/DX2                !
 ! D158  D(1,40,44,45)         180.0            estimate D2E/DX2                !
 ! D159  D(42,40,44,38)        180.0            estimate D2E/DX2                !
 ! D160  D(42,40,44,45)          0.0            estimate D2E/DX2                !
 ! D161  D(20,41,42,40)          0.0            estimate D2E/DX2                !
 ! D162  D(20,41,42,43)        180.0            estimate D2E/DX2                !
 ! D163  D(46,41,42,40)        180.0            estimate D2E/DX2                !
 ! D164  D(46,41,42,43)          0.0            estimate D2E/DX2                !
 --------------------------------------------------------------------------------
 Trust Radius=3.00D-01 FncErr=1.00D-07 GrdErr=1.00D-06 EigMax=2.50D+02 EigMin=1.00D-04
 Number of steps in this run=    276 maximum allowed number of steps=    276.
 GradGradGradGradGradGradGradGradGradGradGradGradGradGradGradGradGradGrad
                          Input orientation:                          
 ---------------------------------------------------------------------
 Center     Atomic      Atomic             Coordinates (Angstroms)
 Number     Number       Type             X           Y           Z
 ---------------------------------------------------------------------
      1          6           0        0.000000    0.711364    2.457581
      2          6           0        0.000000    1.422387    1.224488
      3          6           0        0.000000    0.715568   -0.000000
      4          6           0        0.000000   -0.715568   -0.000000
      5          6           0        0.000000   -1.422387    1.224488
      6          6           0        0.000000   -0.711364    2.457581
      7          6           0        0.000000    1.422387   -1.224487
      8          6           0        0.000000   -1.422387   -1.224487
      9          6           0        0.000000   -0.711364   -2.457581
     10          6           0        0.000000    0.711364   -2.457581
     11          6           0        0.000000   -1.418858   -3.686267
     12          6           0        0.000000   -2.848402   -3.654888
     13          6           0        0.000000   -3.532276   -2.479522
     14          6           0        0.000000   -2.850032   -1.220798
     15          6           0        0.000000   -3.529471   -0.000000
     16          6           0        0.000000   -2.850032    1.220798
     17          1           0        0.000000   -4.612406    0.000000
     18          1           0        0.000000   -3.384471   -4.595135
     19          1           0        0.000000   -4.614461   -2.479149
     20          6           0        0.000000    2.850032    1.220798
     21          6           0        0.000000    3.529471   -0.000000
     22          6           0        0.000000    2.850032   -1.220798
     23          1           0        0.000000    4.612406    0.000000
     24          6           0        0.000000    3.532276   -2.479522
     25          6           0        0.000000    2.848402   -3.654888
     26          6           0        0.000000    1.418858   -3.686267
     27          1           0        0.000000    4.614461   -2.479149
     28          1           0        0.000000    3.384471   -4.595135
     29          6           0        0.000000   -0.687935   -4.892971
     30          1           0        0.000000   -1.227977   -5.830863
     31          6           0        0.000000    0.687935   -4.892971
     32          1           0        0.000000    1.227977   -5.830863
     33          6           0        0.000000   -3.532276    2.479522
     34          6           0        0.000000   -2.848402    3.654888
     35          1           0        0.000000   -3.384472    4.595135
     36          6           0        0.000000   -1.418858    3.686267
     37          1           0        0.000000   -4.614461    2.479150
     38          6           0        0.000000   -0.687935    4.892972
     39          1           0        0.000000   -1.227977    5.830863
     40          6           0        0.000000    1.418858    3.686267
     41          6           0        0.000000    3.532276    2.479522
     42          6           0        0.000000    2.848402    3.654888
     43          1           0        0.000000    3.384472    4.595135
     44          6           0        0.000000    0.687935    4.892972
     45          1           0        0.000000    1.227977    5.830863
     46          1           0        0.000000    4.614461    2.479150
 ---------------------------------------------------------------------
                    Distance matrix (angstroms):
                    1          2          3          4          5
     1  C    0.000000
     2  C    1.423402   0.000000
     3  C    2.457585   1.413847   0.000000
     4  C    2.841803   2.463782   1.431136   0.000000
     5  C    2.464430   2.844774   2.463782   1.413847   0.000000
     6  C    1.422729   2.464430   2.841803   2.457585   1.423402
     7  C    3.750091   2.448975   1.413847   2.463782   3.753694
     8  C    4.255646   3.753694   2.463782   1.413847   2.448975
     9  C    5.116931   4.255646   2.841803   2.457585   3.750091
    10  C    4.915163   3.750091   2.457585   2.841803   4.255646
    11  C    6.502670   5.673463   4.259617   3.752756   4.910756
    12  C    7.073487   6.484439   5.104909   4.231689   5.083486
    13  C    6.510260   6.186144   4.918558   3.752583   4.262783
    14  C    5.119963   4.922701   3.768800   2.458919   2.831535
    15  C    4.901469   5.101007   4.245040   2.813903   2.437042
    16  C    3.770037   4.272420   3.768800   2.458919   1.427649
    17  H    5.863637   6.157767   5.327974   3.896838   3.416956
    18  H    8.155776   7.548105   6.158375   5.313973   6.141480
    19  H    7.261937   7.082405   5.878383   4.620340   4.889403
    20  C    2.470532   1.427649   2.458919   3.768800   4.272420
    21  C    3.739175   2.437042   2.813903   4.245040   5.101007
    22  C    4.254923   2.831535   2.458919   3.768800   4.922701
    23  H    4.610622   3.416956   3.896838   5.327974   6.157767
    24  C    5.686171   4.262783   3.752583   4.918558   6.186144
    25  C    6.475277   5.083486   4.231689   5.104909   6.484439
    26  C    6.184449   4.910756   3.752756   4.259617   5.673463
    27  H    6.293288   4.889403   4.620340   5.878383   7.082405
    28  H    7.542301   6.141480   5.313973   6.158375   7.548105
    29  C    7.482557   6.471226   5.090284   4.893049   6.161390
    30  H    8.512306   7.536736   6.146245   5.853334   7.058028
    31  C    7.350590   6.161390   4.893049   5.090284   6.471226
    32  H    8.304528   7.058028   5.853334   6.146245   7.536736
    33  C    4.243698   5.111145   4.918558   3.752582   2.454943
    34  C    3.755726   4.913907   5.104909   4.231689   2.817866
    35  H    4.620066   5.870873   6.158375   5.313973   3.900133
    36  C    2.459170   3.759392   4.259617   3.752756   2.461782
    37  H    5.325869   6.165850   5.878383   4.620340   3.429798
    38  C    2.808766   4.232166   5.090284   4.893050   3.741283
    39  H    3.891025   5.314426   6.146245   5.853334   4.610476
    40  C    1.417821   2.461782   3.752756   4.259617   3.759392
    41  C    2.820997   2.454943   3.752582   4.918558   5.111145
    42  C    2.449586   2.817866   4.231689   5.104909   4.913907
    43  H    3.422665   3.900133   5.313973   6.158375   5.870873
    44  C    2.435503   3.741283   4.893050   5.090284   4.232166
    45  H    3.412611   4.610476   5.853334   6.146245   5.314426
    46  H    3.903156   3.429798   4.620340   5.878383   6.165850
                    6          7          8          9         10
     6  C    0.000000
     7  C    4.255646   0.000000
     8  C    3.750091   2.844774   0.000000
     9  C    4.915163   2.464430   1.423402   0.000000
    10  C    5.116931   1.423402   2.464430   1.422729   0.000000
    11  C    6.184449   3.759392   2.461782   1.417821   2.459170
    12  C    6.475277   4.913908   2.817866   2.449587   3.755726
    13  C    5.686171   5.111145   2.454943   2.820997   4.243698
    14  C    4.254923   4.272420   1.427650   2.470533   3.770037
    15  C    3.739175   5.101007   2.437042   3.739175   4.901468
    16  C    2.470532   4.922701   2.831535   4.254923   5.119963
    17  H    4.610622   6.157767   3.416957   4.610622   5.863637
    18  H    7.542301   5.870873   3.900133   3.422665   4.620066
    19  H    6.293288   6.165850   3.429798   3.903156   5.325869
    20  C    3.770037   2.831535   4.922701   5.119963   4.254923
    21  C    4.901469   2.437042   5.101007   4.901468   3.739175
    22  C    5.119963   1.427650   4.272420   3.770037   2.470533
    23  H    5.863637   3.416957   6.157767   5.863637   4.610622
    24  C    6.510260   2.454943   5.111145   4.243698   2.820997
    25  C    7.073487   2.817866   4.913908   3.755726   2.449587
    26  C    6.502670   2.461782   3.759392   2.459170   1.417821
    27  H    7.261937   3.429798   6.165850   5.325869   3.903156
    28  H    8.155776   3.900133   5.870873   4.620066   3.422665
    29  C    7.350590   4.232166   3.741282   2.435503   2.808765
    30  H    8.304528   5.314426   4.610476   3.412611   3.891024
    31  C    7.482557   3.741282   4.232166   2.808765   2.435503
    32  H    8.512306   4.610476   5.314426   3.891024   3.412611
    33  C    2.820997   6.186144   4.262783   5.686170   6.510259
    34  C    2.449586   6.484439   5.083486   6.475277   7.073487
    35  H    3.422665   7.548105   6.141480   7.542301   8.155775
    36  C    1.417821   5.673463   4.910755   6.184449   6.502670
    37  H    3.903156   7.082405   4.889403   6.293288   7.261937
    38  C    2.435503   6.471226   6.161390   7.350590   7.482557
    39  H    3.412611   7.536736   7.058028   8.304528   8.512306
    40  C    2.459170   4.910755   5.673463   6.502670   6.184449
    41  C    4.243698   4.262783   6.186144   6.510259   5.686170
    42  C    3.755726   5.083486   6.484439   7.073487   6.475277
    43  H    4.620066   6.141480   7.548105   8.155775   7.542301
    44  C    2.808766   6.161390   6.471226   7.482557   7.350590
    45  H    3.891025   7.058028   7.536736   8.512306   8.304528
    46  H    5.325869   4.889403   7.082405   7.261937   6.293288
                   11         12         13         14         15
    11  C    0.000000
    12  C    1.429888   0.000000
    13  C    2.433674   1.359842   0.000000
    14  C    2.850753   2.434091   1.431728   0.000000
    15  C    4.247735   3.717804   2.479524   1.397135   0.000000
    16  C    5.111511   4.875687   3.762689   2.441596   1.397135
    17  H    4.877224   4.058315   2.704572   2.143901   1.082935
    18  H    2.165566   1.082328   2.120769   3.416398   4.597422
    19  H    3.415993   2.121633   1.082184   2.167178   2.706175
    20  C    6.504053   7.499631   7.377413   6.200977   6.495260
    21  C    6.170456   7.350883   7.484405   6.495260   7.058943
    22  C    4.929702   6.196527   6.505248   5.700064   6.495260
    23  H    7.068572   8.307940   8.513747   7.561635   8.141877
    24  C    5.096074   6.488031   7.064553   6.505248   7.484405
    25  C    4.267376   5.696804   6.488031   6.196527   7.350883
    26  C    2.837716   4.267376   5.096074   4.929702   6.170456
    27  H    6.152891   7.554911   8.146737   7.569815   8.512920
    28  H    4.888560   6.303394   7.233064   7.089089   8.301679
    29  C    1.410810   2.490074   3.730284   4.261399   5.658224
    30  H    2.153074   2.713050   4.067097   4.887101   6.268639
    31  C    2.427903   3.746802   4.861576   5.099222   6.459697
    32  H    3.406615   4.620793   5.821640   6.154905   7.525442
    33  C    6.517936   6.172412   4.959044   3.762688   2.479524
    34  C    7.479048   7.309777   6.172413   4.875687   3.717804
    35  H    8.511477   8.267421   7.076201   5.840436   4.597422
    36  C    7.372533   7.479048   6.517936   5.111511   4.247735
    37  H    6.944367   6.383211   5.075387   4.099124   2.706175
    38  C    8.610318   8.816662   7.902148   6.484816   5.658224
    39  H    9.519043   9.623162   8.623937   7.235812   6.268639
    40  C    7.899803   8.491294   7.907635   6.504053   6.170456
    41  C    7.907634   8.851217   8.631340   7.377413   7.484404
    42  C    8.491294   9.267492   8.851217   7.499631   7.350883
    43  H    9.573588  10.339806   9.894047   8.526084   8.301679
    44  C    8.834133   9.250491   8.494931   7.063666   6.459697
    45  H    9.878334  10.324550   9.577187   8.145924   7.525442
    46  H    8.626314   9.660266   9.537177   8.331162   8.512920
                   16         17         18         19         20
    16  C    0.000000
    17  H    2.143901   0.000000
    18  H    5.840437   4.756373   0.000000
    19  H    4.099124   2.479150   2.447502   0.000000
    20  C    5.700064   7.561635   8.526084   8.331162   0.000000
    21  C    6.495260   8.141877   8.301679   8.512920   1.397135
    22  C    6.200977   7.561635   7.089089   7.569815   2.441596
    23  H    7.561635   9.224812   9.223086   9.554123   2.143901
    24  C    7.377413   8.513747   7.233064   8.146737   3.762689
    25  C    7.499631   8.307940   6.303394   7.554911   4.875687
    26  C    6.504053   7.068572   4.888560   6.152891   5.111511
    27  H    8.331162   9.554123   8.274075   9.228922   4.099124
    28  H    8.526084   9.223086   6.768943   8.274075   5.840437
    29  C    6.484816   6.272372   2.712935   4.609137   7.063666
    30  H    7.235812   6.741908   2.485456   4.764688   8.145924
    31  C    7.063666   7.213514   4.083283   5.825971   6.484816
    32  H    8.145924   8.252820   4.775113   6.735582   7.235812
    33  C    1.431728   2.704572   7.076201   5.075386   6.505247
    34  C    2.434091   4.058315   8.267421   6.383211   6.196527
    35  H    3.416398   4.756373   9.190269   7.180416   7.089089
    36  C    2.850753   4.877224   8.511477   6.944367   4.929702
    37  H    2.167178   2.479150   7.180416   4.958299   7.569815
    38  C    4.261399   6.272372   9.863847   8.352591   5.099222
    39  H    4.887101   6.741908  10.646685   8.973549   6.154905
    40  C    4.929702   7.068572   9.573588   8.626314   2.850753
    41  C    6.505247   8.513747   9.894047   9.537177   1.431728
    42  C    6.196527   8.307940  10.339806   9.660266   2.434091
    43  H    7.089089   9.223086  11.414011  10.678409   3.416398
    44  C    5.099222   7.213514  10.325147   9.080945   4.261399
    45  H    6.154905   8.252820  11.400706  10.158267   4.887101
    46  H    7.569815   9.554122  10.678409  10.476532   2.167178
                   21         22         23         24         25
    21  C    0.000000
    22  C    1.397135   0.000000
    23  H    1.082935   2.143901   0.000000
    24  C    2.479524   1.431728   2.704572   0.000000
    25  C    3.717804   2.434091   4.058315   1.359842   0.000000
    26  C    4.247735   2.850753   4.877224   2.433674   1.429888
    27  H    2.706175   2.167178   2.479150   1.082184   2.121633
    28  H    4.597422   3.416398   4.756373   2.120769   1.082328
    29  C    6.459697   5.099222   7.213514   4.861576   3.746802
    30  H    7.525442   6.154905   8.252820   5.821640   4.620793
    31  C    5.658224   4.261399   6.272372   3.730284   2.490074
    32  H    6.268639   4.887101   6.741908   4.067097   2.713050
    33  C    7.484404   7.377413   8.513747   8.631340   8.851217
    34  C    7.350883   7.499631   8.307940   8.851217   9.267492
    35  H    8.301679   8.526084   9.223086   9.894047  10.339806
    36  C    6.170456   6.504053   7.068572   7.907635   8.491294
    37  H    8.512920   8.331162   9.554122   9.537177   9.660266
    38  C    6.459697   7.063666   7.213514   8.494931   9.250491
    39  H    7.525442   8.145924   8.252820   9.577187  10.324550
    40  C    4.247735   5.111511   4.877224   6.517936   7.479048
    41  C    2.479524   3.762688   2.704572   4.959044   6.172412
    42  C    3.717804   4.875687   4.058315   6.172413   7.309777
    43  H    4.597422   5.840436   4.756373   7.076201   8.267421
    44  C    5.658224   6.484816   6.272372   7.902148   8.816662
    45  H    6.268639   7.235812   6.741908   8.623937   9.623162
    46  H    2.706175   4.099124   2.479150   5.075387   6.383211
                   26         27         28         29         30
    26  C    0.000000
    27  H    3.415993   0.000000
    28  H    2.165566   2.447502   0.000000
    29  C    2.427903   5.825971   4.083283   0.000000
    30  H    3.406615   6.735582   4.775113   1.082259   0.000000
    31  C    1.410810   4.609137   2.712935   1.375870   2.133157
    32  H    2.153074   4.764688   2.485456   2.133157   2.455954
    33  C    7.907634   9.537177   9.894047   7.902148   8.623937
    34  C    8.491294   9.660266  10.339806   8.816662   9.623162
    35  H    9.573588  10.678409  11.414011   9.863846  10.646684
    36  C    7.899803   8.626314   9.573588   8.610318   9.519043
    37  H    8.626314  10.476532  10.678409   8.352591   8.973549
    38  C    8.834133   9.080945  10.325147   9.785943  10.737424
    39  H    9.878334  10.158267  11.400706  10.737423  11.661725
    40  C    7.372533   6.944367   8.511477   8.834133   9.878334
    41  C    6.517936   5.075386   7.076201   8.494930   9.577187
    42  C    7.479048   6.383211   8.267421   9.250491  10.324550
    43  H    8.511477   7.180416   9.190269  10.325146  11.400706
    44  C    8.610318   8.352591   9.863847   9.882191  10.893637
    45  H    9.519043   8.973549  10.646685  10.893637  11.917531
    46  H    6.944367   4.958299   7.180416   9.080945  10.158267
                   31         32         33         34         35
    31  C    0.000000
    32  H    1.082259   0.000000
    33  C    8.494930   9.577187   0.000000
    34  C    9.250491  10.324550   1.359842   0.000000
    35  H   10.325146  11.400706   2.120769   1.082328   0.000000
    36  C    8.834133   9.878334   2.433674   1.429888   2.165566
    37  H    9.080945  10.158267   1.082184   2.121633   2.447502
    38  C    9.882191  10.893637   3.730284   2.490074   2.712935
    39  H   10.893637  11.917531   4.067097   2.713050   2.485456
    40  C    8.610318   9.519043   5.096074   4.267375   4.888560
    41  C    7.902148   8.623937   7.064553   6.488031   7.233064
    42  C    8.816662   9.623162   6.488031   5.696804   6.303394
    43  H    9.863846  10.646684   7.233064   6.303394   6.768943
    44  C    9.785943  10.737424   4.861576   3.746802   4.083283
    45  H   10.737423  11.661725   5.821640   4.620793   4.775113
    46  H    8.352591   8.973549   8.146737   7.554911   8.274075
                   36         37         38         39         40
    36  C    0.000000
    37  H    3.415993   0.000000
    38  C    1.410810   4.609137   0.000000
    39  H    2.153074   4.764688   1.082259   0.000000
    40  C    2.837717   6.152891   2.427903   3.406615   0.000000
    41  C    5.096074   8.146737   4.861576   5.821640   2.433674
    42  C    4.267375   7.554911   3.746802   4.620793   1.429888
    43  H    4.888560   8.274075   4.083283   4.775113   2.165566
    44  C    2.427903   5.825971   1.375869   2.133157   1.410810
    45  H    3.406615   6.735582   2.133157   2.455954   2.153074
    46  H    6.152891   9.228921   5.825971   6.735582   3.415993
                   41         42         43         44         45
    41  C    0.000000
    42  C    1.359842   0.000000
    43  H    2.120769   1.082328   0.000000
    44  C    3.730284   2.490074   2.712935   0.000000
    45  H    4.067097   2.713050   2.485456   1.082259   0.000000
    46  H    1.082184   2.121633   2.447502   4.609137   4.764688
                   46
    46  H    0.000000
 Stoichiometry    C32H14
 Framework group  D2H[C2'(HCC.CCH),SG(C28H12)]
 Deg. of freedom    23
 Full point group                 D2H     NOp   8
 Largest Abelian subgroup         D2H     NOp   8
 Largest concise Abelian subgroup D2      NOp   4
                         Standard orientation:                         
 ---------------------------------------------------------------------
 Center     Atomic      Atomic             Coordinates (Angstroms)
 Number     Number       Type             X           Y           Z
 ---------------------------------------------------------------------
      1          6           0        0.000000    0.711364    2.457581
      2          6           0        0.000000    1.422387    1.224488
      3          6           0       -0.000000    0.715568    0.000000
      4          6           0       -0.000000   -0.715568    0.000000
      5          6           0       -0.000000   -1.422387    1.224488
      6          6           0       -0.000000   -0.711364    2.457581
      7          6           0        0.000000    1.422387   -1.224488
      8          6           0       -0.000000   -1.422387   -1.224488
      9          6           0       -0.000000   -0.711364   -2.457581
     10          6           0        0.000000    0.711364   -2.457581
     11          6           0        0.000000   -1.418858   -3.686267
     12          6           0        0.000000   -2.848402   -3.654888
     13          6           0        0.000000   -3.532276   -2.479522
     14          6           0        0.000000   -2.850032   -1.220798
     15          6           0       -0.000000   -3.529471    0.000000
     16          6           0       -0.000000   -2.850032    1.220798
     17          1           0        0.000000   -4.612406    0.000000
     18          1           0        0.000000   -3.384471   -4.595135
     19          1           0        0.000000   -4.614461   -2.479149
     20          6           0        0.000000    2.850032    1.220798
     21          6           0        0.000000    3.529471    0.000000
     22          6           0        0.000000    2.850032   -1.220798
     23          1           0        0.000000    4.612406    0.000000
     24          6           0        0.000000    3.532276   -2.479522
     25          6           0        0.000000    2.848402   -3.654888
     26          6           0        0.000000    1.418858   -3.686267
     27          1           0        0.000000    4.614461   -2.479149
     28          1           0        0.000000    3.384471   -4.595135
     29          6           0        0.000000   -0.687935   -4.892971
     30          1           0        0.000000   -1.227977   -5.830863
     31          6           0        0.000000    0.687935   -4.892971
     32          1           0        0.000000    1.227977   -5.830863
     33          6           0       -0.000000   -3.532276    2.479522
     34          6           0       -0.000000   -2.848402    3.654888
     35          1           0       -0.000000   -3.384471    4.595135
     36          6           0       -0.000000   -1.418858    3.686267
     37          1           0       -0.000000   -4.614461    2.479149
     38          6           0       -0.000000   -0.687935    4.892971
     39          1           0       -0.000000   -1.227977    5.830863
     40          6           0        0.000000    1.418858    3.686267
     41          6           0        0.000000    3.532276    2.479522
     42          6           0        0.000000    2.848402    3.654888
     43          1           0        0.000000    3.384471    4.595135
     44          6           0        0.000000    0.687935    4.892971
     45          1           0        0.000000    1.227977    5.830863
     46          1           0        0.000000    4.614461    2.479149
 ---------------------------------------------------------------------
 Rotational constants (GHZ):           0.2393783           0.1478539           0.0914000
 Standard basis: 6-311++G(2d,2p) (5D, 7F)
 There are   207 symmetry adapted cartesian basis functions of AG  symmetry.
 There are    76 symmetry adapted cartesian basis functions of B1G symmetry.
 There are    66 symmetry adapted cartesian basis functions of B2G symmetry.
 There are   185 symmetry adapted cartesian basis functions of B3G symmetry.
 There are    66 symmetry adapted cartesian basis functions of AU  symmetry.
 There are   185 symmetry adapted cartesian basis functions of B1U symmetry.
 There are   207 symmetry adapted cartesian basis functions of B2U symmetry.
 There are    76 symmetry adapted cartesian basis functions of B3U symmetry.
 There are   189 symmetry adapted basis functions of AG  symmetry.
 There are    76 symmetry adapted basis functions of B1G symmetry.
 There are    66 symmetry adapted basis functions of B2G symmetry.
 There are   171 symmetry adapted basis functions of B3G symmetry.
 There are    66 symmetry adapted basis functions of AU  symmetry.
 There are   171 symmetry adapted basis functions of B1U symmetry.
 There are   189 symmetry adapted basis functions of B2U symmetry.
 There are    76 symmetry adapted basis functions of B3U symmetry.
  1004 basis functions,  1512 primitive gaussians,  1068 cartesian basis functions
   103 alpha electrons      103 beta electrons
       nuclear repulsion energy      2862.1784287040 Hartrees.
 NAtoms=   46 NActive=   46 NUniq=   13 SFac= 4.00D+00 NAtFMM=   60 NAOKFM=F Big=F
 Integral buffers will be    131072 words long.
 Raffenetti 2 integral format.
 Two-electron integral symmetry is turned on.
 Nuclear repulsion after empirical dispersion term =     2862.0338751786 Hartrees.
 One-electron integrals computed using PRISM.
 NBasis=  1004 RedAO= T EigKep=  1.05D-06  NBF=   189    76    66   171    66   171   189    76
 NBsUse=   973 1.00D-06 EigRej=  8.63D-07 NBFU=   183    76    66   162    66   165   179    76
 ExpMin= 3.60D-02 ExpMax= 4.56D+03 ExpMxC= 6.82D+02 IAcc=3 IRadAn=         5 AccDes= 0.00D+00
 Harris functional with IExCor=  402 and IRadAn=       5 diagonalized for initial guess.
 HarFok:  IExCor=  402 AccDes= 0.00D+00 IRadAn=         5 IDoV= 1 UseB2=F ITyADJ=14
 ICtDFT=  3500011 ScaDFX=  1.000000  1.000000  1.000000  1.000000
 FoFCou: FMM=F IPFlag=           0 FMFlag=      100000 FMFlg1=           0
         NFxFlg=           0 DoJE=T BraDBF=F KetDBF=T FulRan=T
         wScrn=  0.000000 ICntrl=       500 IOpCl=  0 I1Cent=   200000004 NGrid=           0
         NMat0=    1 NMatS0=      1 NMatT0=    0 NMatD0=    1 NMtDS0=    0 NMtDT0=    0
 Petite list used in FoFCou.
 Initial guess orbital symmetries:
       Occupied  (B2U) (B3G) (AG) (B1U) (AG) (B1U) (B2U) (B3G)
                 (B2U) (AG) (B3G) (B1U) (B2U) (AG) (B3G) (B1U)
                 (B2U) (AG) (B2U) (B3G) (AG) (B1U) (AG) (B2U) (B1U)
                 (AG) (B3G) (B2U) (B1U) (AG) (B3G) (B2U) (AG) (B1U)
                 (B2U) (AG) (B3G) (AG) (B1U) (B2U) (B1U) (AG) (B2U)
                 (B3G) (AG) (B3G) (B1U) (B2U) (AG) (B1U) (B2U)
                 (B3G) (AG) (B1U) (B2U) (B3G) (AG) (B2U) (AG) (B1U)
                 (B3G) (B1U) (AG) (B2U) (B3G) (B1U) (B2U) (AG)
                 (B1U) (B3G) (AG) (B2U) (B1U) (AG) (B3G) (B1U)
                 (AG) (B3G) (B3U) (B2U) (AG) (B2G) (B1U) (B3G)
                 (B1G) (B2U) (B2U) (B1U) (B3U) (AU) (B3G) (AG)
                 (B3U) (B2G) (B1G) (B2G) (B1G) (B3U) (AU) (B3U)
                 (AU) (B2G) (B1G)
       Virtual   (B3U) (AU) (B2G) (B1G) (B2G) (B1G) (B3U) (AU)
                 (B3U) (AU) (B1G) (AG) (B1U) (B2U) (B2G) (B3G)
                 (AG) (B1G) (AG) (B1U) (B2U) (B1U) (AG) (B3G) (B3U)
                 (B2U) (B2U) (B3U) (B1U) (B2G) (B1G) (AG) (AG)
                 (AU) (B3G) (B1U) (B3U) (B3G) (B2U) (AU) (AG) (B2U)
                 (AG) (B1U) (B3U) (AG) (B1G) (B1U) (B3G) (B2U)
                 (B2G) (AG) (B1U) (B2G) (B3G) (B2U) (AG) (B2U)
                 (B1G) (B1U) (B1U) (B3G) (AG) (B2U) (AU) (B2U)
                 (AG) (B3G) (B1U) (B3U) (B2U) (B1G) (B1U) (AG)
                 (B3G) (B3U) (AU) (AG) (B2U) (B3G) (B3G) (B2U)
                 (B2G) (B1U) (B1G) (AG) (AG) (B2U) (B1U) (B3U)
                 (B1U) (AG) (B3G) (B1U) (B1G) (B2U) (B3G) (B2G)
                 (AG) (AU) (B3U) (B1U) (B2U) (AG) (B3G) (B2G) (AG)
                 (B3G) (B1U) (B1G) (B1U) (B2U) (AU) (B2U) (AG)
                 (B3G) (B1U) (B1G) (B2U) (AG) (B1U) (AG) (B2U)
                 (AG) (B3G) (B3U) (B1U) (B2U) (B1U) (B3G) (AG)
                 (AU) (B3G) (B1G) (B2U) (B2U) (B3U) (B3G) (B2G)
                 (AG) (B2U) (AG) (B1U) (B2U) (B3G) (B1U) (B2U)
                 (AG) (B3G) (B1U) (AG) (B3G) (B3U) (B3G) (B3G)
                 (B1U) (B2U) (B1G) (AG) (B2G) (B2U) (B3G) (AU)
                 (AG) (B1U) (B2U) (B2U) (B1U) (AG) (B3G) (B2U)
                 (B1U) (AG) (B3G) (B1U) (AG) (B3U) (B2U) (B2G)
                 (B3U) (B1G) (AU) (B3G) (AG) (B2U) (B2G) (B3U)
                 (B1G) (AU) (B3U) (B2G) (AG) (B1U) (B1U) (AG) (B2G)
                 (B3U) (B1U) (B1U) (B2U) (B1G) (B3G) (B3G) (AG)
                 (B2U) (B3G) (B1G) (AG) (B3G) (B2U) (B2U) (AG)
                 (B1U) (B3U) (B3G) (AG) (B1U) (AU) (B2U) (B2G)
                 (AG) (B1U) (AG) (B2U) (B1U) (B3G) (AU) (B1G) (B3U)
                 (B2G) (B3U) (AU) (B1G) (B2G) (B1G) (B3U) (B2G)
                 (AG) (B1G) (AG) (AU) (B3G) (B1U) (B2U) (B2G) (B2U)
                 (B3U) (B3G) (B2U) (B1U) (AG) (B1U) (B3U) (B2G)
                 (AU) (B2U) (AG) (B3U) (B3G) (B1G) (B3U) (AU) (AU)
                 (B2U) (B1G) (B3U) (AG) (B2G) (B3G) (B1G) (B1U)
                 (B2U) (AG) (B3G) (AG) (AU) (B2G) (B2U) (B1U) (B1G)
                 (AG) (AU) (B2U) (B1U) (B3G) (B2G) (B1G) (B1U)
                 (AG) (B2U) (B1U) (B3G) (B2U) (AG) (B3G) (B1U)
                 (B3U) (AG) (B2U) (AU) (B3G) (AG) (B3G) (B1U) (B1U)
                 (B2U) (AG) (B3G) (B2U) (B1U) (B3G) (AG) (B3G)
                 (B2U) (B2U) (B2G) (B3U) (B1G) (B3U) (B1U) (AG)
                 (AU) (B2G) (B3U) (B1G) (AG) (B3G) (B2U) (B1U)
                 (B2G) (B2U) (B3U) (B3G) (B1U) (AG) (B1G) (AU)
                 (AG) (B1U) (AU) (B1G) (B2U) (B1G) (B2G) (B3U)
                 (B2G) (B3G) (AG) (AU) (B3G) (B3U) (B1U) (AG) (B2U)
                 (AU) (B1U) (AG) (B1G) (B3G) (B2G) (B1U) (AG) (B2U)
                 (B1U) (AG) (B3U) (B1G) (B2U) (AU) (B3G) (B3U)
                 (B1G) (AG) (B1U) (B3G) (B2U) (B1U) (AG) (B3G)
                 (B1U) (B2U) (B3G) (B1U) (AG) (B2G) (B2U) (B1U)
                 (AU) (B2U) (B3G) (B1G) (AG) (B2G) (B3U) (AG) (B1G)
                 (B2G) (AU) (B1U) (AG) (B2U) (B1U) (B2U) (B3G)
                 (B3G) (B1U) (AG) (B2U) (AG) (B3G) (B3U) (B1U)
                 (AG) (B1G) (B2U) (B2U) (AU) (AG) (B3U) (B3G) (B3G)
                 (B2U) (AU) (B2G) (B2U) (B1U) (AG) (B3G) (B1G)
                 (B2U) (B1U) (B3G) (B1U) (AG) (B1U) (B3G) (B1G)
                 (AU) (AG) (B2U) (B1U) (B2U) (B3U) (B3G) (AG) (B3G)
                 (AG) (B1U) (B2U) (B3G) (B2U) (B1U) (B2U) (B2G)
                 (B3G) (AG) (B1G) (AG) (B3G) (B1U) (B1U) (B2U)
                 (AG) (B2U) (B3G) (AU) (B3U) (AG) (B2U) (B1U) (B3G)
                 (B2U) (AG) (B3G) (B1U) (B2U) (B3G) (AG) (B1U)
                 (B2U) (B3G) (B2G) (B2U) (AU) (B1G) (AG) (B1U)
                 (B3G) (AG) (B2U) (B1U) (B3G) (B3G) (B2U) (AG)
                 (B2U) (B1U) (B3G) (B2U) (AG) (B3G) (B2U) (B1G)
                 (AU) (B1U) (B3G) (B2U) (AG) (B1U) (AG) (B3G) (B2U)
                 (B3G) (B1U) (B1U) (B2U) (AG) (B3G) (AG) (B1U)
                 (B2U) (B3U) (B3G) (B2G) (B1G) (AU) (B3U) (AG)
                 (B2U) (B2G) (B3U) (B1G) (B3U) (B2G) (AU) (B1G)
                 (B2U) (B2G) (B3U) (AG) (B1G) (B1U) (B2U) (B3U)
                 (B2G) (B3G) (AU) (AG) (B1U) (B3G) (AU) (B1G) (B3U)
                 (B2G) (B1U) (AG) (B2G) (AG) (B3U) (AG) (B1U) (B2U)
                 (B3G) (AG) (B2U) (B1U) (B3G) (AG) (B1U) (AU) (B2U)
                 (B3U) (B2G) (B1G) (B3G) (AU) (B3U) (B2G) (B1G)
                 (B2U) (AU) (B1U) (B1G) (B3U) (B1U) (AG) (AG) (B1G)
                 (AU) (B1G) (B3G) (B1G) (B1U) (AG) (B3U) (B3G)
                 (B2G) (B2U) (AU) (B2U) (B2G) (B3U) (AG) (B1U)
                 (AG) (B3G) (B1U) (B2G) (B2U) (B3U) (AU) (AG) (B1G)
                 (B3G) (B1U) (B2U) (B3G) (B3U) (B1U) (AG) (B2G)
                 (B2U) (AU) (B3G) (B2U) (B2G) (B1G) (AG) (B3G)
                 (B3U) (B2G) (B1U) (AG) (B1U) (AU) (B1G) (AG) (B2U)
                 (B3U) (AU) (B1U) (B2U) (AG) (B3G) (B3U) (B2G)
                 (B1G) (B2U) (B1U) (AU) (B3G) (AG) (B1G) (AG) (B3U)
                 (B2U) (B2U) (B3G) (B2G) (B1U) (B2G) (B3U) (B1G)
                 (AG) (AU) (AU) (B3G) (B2U) (AG) (B3U) (B1U) (B2G)
                 (B3U) (B1G) (B1U) (B1G) (AU) (B2G) (AG) (B2U)
                 (B3G) (B1G) (B1U) (B3G) (AG) (AU) (B3U) (B2G)
                 (B2U) (AU) (B1G) (AG) (B1U) (B3G) (B1U) (AU) (B2U)
                 (B1G) (AG) (B3U) (B2U) (B3G) (B1G) (B3G) (B2G)
                 (B1U) (B1U) (AU) (AG) (AG) (B3U) (B2U) (B2U) (B3G)
                 (B3G) (B2G) (AG) (B2U) (B1G) (AG) (B1U) (AU) (B2U)
                 (B3G) (AG) (B3G) (B1U) (B2G) (B3U) (AU) (B1G)
                 (B3U) (B2G) (B1U) (B2U) (AG) (B3U) (B1G) (AU)
                 (B1G) (B2G) (AU) (B1U) (B3U) (B2U) (AG) (B1G)
                 (B3G) (B3G) (B1U) (B2U) (AU) (B1G) (AG) (B2U)
                 (B1U) (AG) (B1U) (B2U) (B3G) (B1U) (B3G) (B2U)
                 (AG) (B2U) (B3G) (B2U) (AG) (B3G) (B1U) (B3G)
                 (B1U) (B2U) (AG) (AG) (B3G) (B1U) (B2U) (B3G)
                 (B2U) (AG) (B3G) (B1U) (B1U) (B2U) (AG) (B2U)
                 (B3G) (B1U) (AG) (B2U) (B3G) (B3G) (AG) (AG) (B1U)
                 (B2U) (B2U) (B3G) (B1U) (B3G) (B3G) (B1U) (B2U)
                 (AG) (B1U) (B2U) (AG) (B3G) (B2U) (B3G) (AG) (B1U)
                 (B2U) (AG) (B1U) (AG) (B2U) (B3G) (AG) (B2U) (B3G)
                 (B1U) (B3G) (B2U) (AG) (B2U) (B1U) (B3G) (B2U)
                 (AG) (B1U) (B3G) (B2U) (B1U) (B3G) (B2U) (B3G)
                 (AG) (B1U) (B2U) (B3G) (B1U) (AG) (AG) (B2U) (B1U)
                 (B2U) (AG) (B3G) (B2U) (AG) (B3G) (B1U) (B2U)
                 (B1U) (B3G) (AG) (B3G) (B2U) (AG) (B1U) (AG) (B2U)
                 (B1U) (B3G) (B2U) (B2U) (AG) (B3G)
 The electronic state of the initial guess is 1-AG.
 Requested convergence on RMS density matrix=1.00D-08 within 128 cycles.
 Requested convergence on MAX density matrix=1.00D-06.
 Requested convergence on             energy=1.00D-06.
 No special actions if energy rises.
 SCF Done:  E(RB3LYP) =  -1228.46179279     A.U. after   13 cycles
            NFock= 13  Conv=0.31D-08     -V/T= 2.0044
 **********************************************************************
            Population analysis using the SCF density.
 **********************************************************************
 Orbital symmetries:
       Occupied  (AG) (B2U) (B3G) (B1U) (B2U) (AG) (B1U) (AG) (B3G)
                 (B2U) (B1U) (AG) (B3G) (B2U) (B1U) (AG) (B3G)
                 (B2U) (B2U) (B3G) (AG) (B1U) (B2U) (AG) (AG) (B1U)
                 (B2U) (B3G) (AG) (B1U) (B3G) (B2U) (AG) (B1U)
                 (B2U) (AG) (B3G) (AG) (B1U) (B2U) (B1U) (AG) (B2U)
                 (B3G) (AG) (B3G) (B1U) (B2U) (AG) (B2U) (B1U)
                 (AG) (B3G) (B1U) (B2U) (B3G) (AG) (B2U) (B3G)
                 (AG) (B1U) (B1U) (B2U) (AG) (B3G) (B1U) (B2U)
                 (AG) (AG) (B1U) (B3U) (B2U) (B3G) (B1U) (B3G)
                 (AG) (B1U) (B2G) (AG) (B3G) (B1G) (B2U) (AG) (B3G)
                 (B2U) (B3U) (AU) (B1U) (B2U) (B1U) (B3U) (B3G)
                 (B2G) (AG) (B1G) (B2G) (B1G) (AU) (B3U) (B3U)
                 (AU) (B2G) (B1G)
       Virtual   (B3U) (AU) (B2G) (B1G) (B3U) (B2G) (B1G) (AG)
                 (B1U) (B2U) (B3G) (AG) (B1U) (B2U) (AU) (AG) (B3U)
                 (AG) (B3G) (B1G) (B1U) (AU) (B2U) (B2G) (B3U)
                 (B1U) (B2U) (B1G) (B3U) (AG) (B3G) (AG) (B3G)
                 (AU) (B3U) (B2G) (AG) (B1U) (B2U) (B1G) (AG) (B1U)
                 (B3G) (B2U) (B2G) (AG) (B2U) (AU) (B1U) (B2U)
                 (B1G) (B1U) (AG) (B3G) (B3U) (B2G) (B1U) (B1G)
                 (B1U) (B3G) (B2U) (AG) (B3U) (AG) (AU) (B2U) (B3G)
                 (B1G) (B2G) (AG) (B3G) (B3U) (B2U) (AG) (B1U)
                 (B2U) (B3U) (B1G) (B3G) (AU) (B2G) (B3U) (B1U)
                 (AG) (B2U) (AG) (B1U) (AU) (B3G) (AG) (B1U) (B2G)
                 (AG) (B2U) (B1G) (B2U) (B1U) (AU) (B2U) (B3G)
                 (B1G) (B1U) (AG) (B2U) (B1U) (B2U) (AG) (B3G)
                 (B1U) (AG) (B3G) (B3U) (B1U) (B1G) (AU) (B3G)
                 (AG) (B1U) (AG) (B2U) (AG) (B3G) (B2U) (B3G) (B1G)
                 (B2U) (AG) (B3U) (B1U) (B2U) (B2G) (B3G) (B3G)
                 (B1U) (B2U) (AG) (B2U) (AG) (B1U) (B3G) (AG) (B1U)
                 (B2U) (B3G) (B1U) (AG) (B3G) (B2U) (B1G) (AU)
                 (B1U) (AG) (B2U) (B3G) (B1U) (AG) (B3G) (B1U)
                 (B2U) (B2U) (B3U) (AG) (B3G) (AG) (B2G) (B1U)
                 (B2U) (B2U) (AG) (B3G) (B3G) (B1U) (B3U) (B2G)
                 (B3G) (B1G) (B1U) (AG) (AU) (B3U) (B2U) (AG) (B2U)
                 (AG) (B2G) (B3U) (B1U) (B3U) (B2G) (AU) (B1G)
                 (B3G) (AG) (B1U) (B2U) (B2G) (B1G) (B3U) (B1U)
                 (B3G) (B2U) (B1G) (B2U) (B1U) (AG) (AG) (B3G)
                 (B1U) (AG) (B3G) (B3U) (B2U) (AG) (B3G) (AU) (B2G)
                 (B2U) (B1U) (B3G) (B1U) (AG) (AU) (B1G) (B1U)
                 (B2U) (AG) (B3U) (AU) (B2U) (B3G) (B3U) (B1G)
                 (B2G) (B2G) (B1G) (B3U) (B2G) (B1G) (AG) (B1U)
                 (AU) (B3U) (AG) (B2U) (B1U) (AG) (B2G) (B2U) (B3G)
                 (B3U) (AU) (B2G) (AG) (B3U) (B1G) (AU) (B1U) (B3G)
                 (B2U) (B2U) (B1G) (AU) (B3U) (B3G) (B3U) (B2U)
                 (AG) (B2G) (B1G) (B3G) (B1U) (B2U) (AG) (B3G)
                 (AU) (B2U) (B1U) (B1G) (B1U) (AG) (B2G) (AU) (AG)
                 (B2U) (B2G) (AG) (B1G) (B3G) (B2U) (B1U) (B3G)
                 (AG) (B1U) (B2U) (B3G) (B1U) (B3G) (AG) (B2U)
                 (B1U) (B3U) (AG) (B3G) (B2U) (AU) (B3G) (AG) (B1U)
                 (B1U) (B2U) (B3G) (AG) (B2U) (B3G) (B3U) (B1G)
                 (B2U) (B2G) (B3U) (AU) (B1U) (B2G) (B3U) (B1G)
                 (AG) (B3G) (AG) (B2U) (B1U) (B2G) (B3U) (B2U)
                 (B1G) (B3G) (B1U) (AG) (AU) (AG) (B1U) (AU) (B1G)
                 (B2G) (B3U) (B2U) (B1G) (AG) (B3G) (AU) (B2G)
                 (B1U) (AG) (B3G) (B3U) (AU) (B2U) (B3G) (B1U)
                 (AG) (AG) (B1U) (B2U) (B1G) (AG) (B2G) (B2U) (B1U)
                 (B1G) (B3U) (AU) (B1G) (B1U) (B3G) (AG) (B3G)
                 (B3U) (B1U) (B3G) (B2U) (B2U) (B3G) (B2U) (AG)
                 (B1U) (B1U) (B2U) (B2G) (AG) (B3G) (B1U) (AG)
                 (AU) (B1G) (AG) (B3U) (B1G) (B2G) (B2U) (AG) (B1U)
                 (B2G) (AU) (B3G) (B1U) (B3G) (B2U) (AG) (B1U)
                 (AG) (B3G) (B2U) (B1U) (AG) (B3U) (B1G) (B2U)
                 (B2U) (B3G) (AU) (AG) (B3G) (B2U) (B3U) (AG) (B2U)
                 (B1U) (B2G) (AU) (B3G) (B2U) (B1U) (B3G) (B1G)
                 (B1U) (AG) (B1U) (AU) (B1G) (B2U) (B3G) (B3G)
                 (AG) (AG) (B1U) (B3U) (B2U) (B3G) (B1U) (AG) (B3G)
                 (B2U) (B2G) (B1G) (B2U) (B1U) (AG) (B3G) (B2U)
                 (AG) (B2U) (B3G) (B1U) (AU) (B3G) (B2U) (B1U)
                 (AG) (B3U) (B2U) (B3G) (AG) (B1U) (B3G) (B2U)
                 (AG) (B2U) (B1U) (B3G) (AG) (B2U) (B3G) (B1U)
                 (B2G) (B2U) (AU) (B1G) (AG) (B3G) (B1U) (AG) (B2U)
                 (B2U) (B3G) (B1U) (AG) (B2U) (B3G) (B1U) (B2U)
                 (B3G) (B3G) (AG) (B1G) (AU) (B2U) (B1U) (B3G)
                 (B2U) (AG) (B3G) (B2U) (B1U) (AG) (B1U) (B3G)
                 (B2U) (B1U) (AG) (B3G) (B1U) (AG) (B2U) (B3G)
                 (B3U) (AG) (B2U) (B2G) (B1G) (AU) (B3U) (B3U)
                 (B2G) (B1G) (B3U) (B2G) (B2U) (AU) (B1G) (AG)
                 (B1U) (B2G) (B3U) (B2U) (B3G) (B1G) (AG) (B1U)
                 (B3G) (B3U) (B2G) (AU) (AU) (B1G) (B3U) (B2G)
                 (B1U) (B2G) (AG) (B3U) (AG) (B2U) (AG) (B1U) (AG)
                 (B3G) (B2U) (B1U) (B3G) (B1U) (B3U) (B2U) (AG)
                 (B2G) (AU) (B3G) (B1G) (AU) (B2U) (B1U) (B3U)
                 (B2G) (AG) (B1G) (AU) (B1G) (B3U) (AG) (B1G) (AU)
                 (B1G) (B1U) (B3G) (B1G) (B1U) (B3U) (AG) (B3G)
                 (B2U) (B2G) (AU) (B2G) (B2U) (B3U) (B3G) (AG)
                 (B2U) (B1U) (B2G) (AG) (AU) (B3U) (B1U) (B1G)
                 (AG) (B3G) (B1U) (B3U) (B2U) (B3G) (B2G) (AG)
                 (AU) (B1U) (B2U) (B3G) (B1G) (B2U) (B2G) (B2G)
                 (B3U) (AG) (B1U) (B3G) (AU) (AG) (B1G) (B3U) (AU)
                 (B2U) (B1U) (AG) (B3U) (B2U) (B1G) (B2G) (B1U)
                 (AU) (AG) (B3G) (B2U) (B1G) (AG) (B3G) (B1U) (B3U)
                 (AG) (B2U) (B2G) (B3G) (B2U) (B2G) (B1G) (B3U)
                 (AU) (AG) (AU) (B1U) (B3U) (B2G) (B3U) (B2U) (B3G)
                 (AG) (B1U) (B1G) (B1G) (AU) (B1U) (B2G) (B1G)
                 (AG) (B3U) (B2U) (B2G) (B3G) (AU) (AG) (B1U) (AU)
                 (B3G) (B1G) (B2U) (B1G) (AG) (AU) (B1U) (B3G)
                 (B1U) (B2U) (B3U) (AG) (B1G) (B2U) (B3G) (B3G)
                 (B2G) (B1U) (AU) (B1U) (AG) (B3U) (AG) (B2U) (B3G)
                 (B2U) (B2G) (B3G) (B1G) (AG) (AU) (B2U) (B1U)
                 (AG) (B2G) (B3U) (B3G) (AU) (B1G) (B2U) (B3U)
                 (B2G) (AG) (B1U) (B3G) (B3U) (B1G) (AU) (B1G)
                 (B2G) (B3U) (AU) (B2U) (B1U) (AG) (B1G) (B1U)
                 (B2U) (AG) (AU) (B3G) (B1G) (B1U) (B3G) (AG) (B2U)
                 (B2U) (B1U) (AG) (B3G) (B1U) (B2U) (B1U) (B3G)
                 (B2U) (AG) (B2U) (B3G) (B2U) (AG) (B3G) (B1U)
                 (B1U) (B3G) (B2U) (AG) (AG) (B3G) (B1U) (B3G)
                 (B2U) (B2U) (B3G) (AG) (B1U) (B1U) (B2U) (AG)
                 (B1U) (B3G) (B2U) (B3G) (AG) (B2U) (B3G) (AG)
                 (B2U) (B1U) (AG) (B3G) (B2U) (B3G) (B1U) (B1U)
                 (B3G) (B2U) (B1U) (AG) (B2U) (AG) (B3G) (B2U)
                 (B3G) (AG) (B1U) (B2U) (AG) (B1U) (AG) (B2U) (AG)
                 (B3G) (B2U) (B3G) (B1U) (B2U) (B3G) (AG) (B2U)
                 (B1U) (B3G) (B2U) (AG) (B1U) (B3G) (B2U) (B1U)
                 (B3G) (B2U) (B3G) (AG) (B1U) (B2U) (B3G) (B1U)
                 (AG) (AG) (B2U) (B1U) (B2U) (B3G) (AG) (B2U) (AG)
                 (B3G) (B1U) (B2U) (B1U) (B3G) (AG) (B3G) (B2U)
                 (AG) (B1U) (AG) (B1U) (B2U) (B3G) (B2U) (B2U)
                 (AG) (B3G)
 The electronic state is 1-AG.
 Alpha  occ. eigenvalues --  -10.19238 -10.19198 -10.19145 -10.19143 -10.19140
 Alpha  occ. eigenvalues --  -10.19140 -10.19107 -10.19107 -10.19088 -10.19082
 Alpha  occ. eigenvalues --  -10.19060 -10.19055 -10.19047 -10.19043 -10.19006
 Alpha  occ. eigenvalues --  -10.19006 -10.18999 -10.18998 -10.18206 -10.18206
 Alpha  occ. eigenvalues --  -10.18205 -10.18205 -10.18144 -10.18144 -10.18138
 Alpha  occ. eigenvalues --  -10.18138 -10.18131 -10.18130 -10.18130 -10.18130
 Alpha  occ. eigenvalues --  -10.18073 -10.18073  -0.92020  -0.89610  -0.88509
 Alpha  occ. eigenvalues --   -0.86062  -0.85579  -0.83036  -0.81783  -0.81248
 Alpha  occ. eigenvalues --   -0.79576  -0.77167  -0.76447  -0.76153  -0.74598
 Alpha  occ. eigenvalues --   -0.73479  -0.72215  -0.70856  -0.65187  -0.64976
 Alpha  occ. eigenvalues --   -0.64933  -0.64319  -0.64199  -0.62650  -0.58719
 Alpha  occ. eigenvalues --   -0.58212  -0.57511  -0.55734  -0.54441  -0.54379
 Alpha  occ. eigenvalues --   -0.54024  -0.50831  -0.50031  -0.48934  -0.48873
 Alpha  occ. eigenvalues --   -0.48867  -0.47849  -0.46314  -0.45013  -0.44351
 Alpha  occ. eigenvalues --   -0.44136  -0.44006  -0.43897  -0.43256  -0.42687
 Alpha  occ. eigenvalues --   -0.42594  -0.41711  -0.41307  -0.40842  -0.40142
 Alpha  occ. eigenvalues --   -0.40122  -0.39836  -0.38768  -0.37451  -0.37305
 Alpha  occ. eigenvalues --   -0.37191  -0.36672  -0.36502  -0.35817  -0.34672
 Alpha  occ. eigenvalues --   -0.34098  -0.32307  -0.32190  -0.31949  -0.31759
 Alpha  occ. eigenvalues --   -0.30111  -0.27431  -0.26672  -0.26523  -0.25035
 Alpha  occ. eigenvalues --   -0.23763  -0.21583  -0.19285
 Alpha virt. eigenvalues --   -0.08535  -0.06187  -0.04442  -0.03727  -0.02056
 Alpha virt. eigenvalues --   -0.01968  -0.00909  -0.00854  -0.00416  -0.00323
 Alpha virt. eigenvalues --    0.00594   0.00655   0.01897   0.02002   0.02004
 Alpha virt. eigenvalues --    0.02551   0.03008   0.03636   0.03672   0.03757
 Alpha virt. eigenvalues --    0.04689   0.04930   0.05315   0.05475   0.05529
 Alpha virt. eigenvalues --    0.05727   0.05845   0.06609   0.07340   0.07637
 Alpha virt. eigenvalues --    0.08009   0.08095   0.08215   0.08225   0.08722
 Alpha virt. eigenvalues --    0.08876   0.09498   0.09766   0.09833   0.09990
 Alpha virt. eigenvalues --    0.10519   0.10792   0.11077   0.11113   0.11147
 Alpha virt. eigenvalues --    0.11282   0.11778   0.11902   0.11917   0.12273
 Alpha virt. eigenvalues --    0.12465   0.12494   0.12765   0.12863   0.13042
[...]
 0.00701790,0.,0.,0.13215012,0.,0.00195711,0.00197224,0.,-0.02279906,-0
 .03262355,0.,-0.00589850,0.00205912,0.,-0.00044970,-0.00163273,0.,0.00
 008022,0.00035550,0.,-0.00063558,0.00022016,0.,-0.00126127,0.00031949,
 0.,-0.00032195,0.00005498,0.,-0.00005468,0.00047684,0.,0.00009573,-0.0
 0012264,0.,-0.00003139,-0.00021523,0.,-0.00011584,-0.00011679,0.,0.000
 06995,0.00002822,0.,-0.00000276,-0.00020012,0.,0.00021835,-0.00005516,
 0.,0.00012679,0.00031853,0.,-0.00000838,-0.00000071,0.,0.00001585,0.00
 000416,0.,-0.00000327,-0.00002377,0.,-0.16070870,-0.08262157,0.,0.0168
 0466,0.01070733,0.,-0.00148938,0.00552180,0.,0.00081912,0.00158062,0.,
 0.00132464,-0.00010131,0.,0.00010295,0.00068291,0.,-0.00044810,-0.0002
 4730,0.,-0.00009584,0.00001417,0.,0.00007059,0.00014502,0.,-0.00022565
 ,0.00028336,0.,0.00001230,0.00000531,0.,0.00048487,0.00010849,0.,-0.00
 000287,0.00001228,0.,-0.00043519,0.00056148,0.,-0.00058144,-0.00071930
 ,0.,-0.00003359,0.00000888,0.,0.00084143,0.00066991,0.,0.00000009,-0.0
 0001538,0.,-0.00240546,0.00039912,0.,-0.00055374,0.00004118,0.,-0.0304
 3648,0.03486614,0.,0.73046821,0.,0.00409651,-0.02746278,0.,-0.03390683
 ,0.01770860,0.,0.00137256,-0.00378768,0.,0.00080966,0.00093629,0.,0.00
 109058,0.00080935,0.,-0.00540026,0.00090873,0.,-0.00976055,0.00003751,
 0.,0.00184346,-0.00229992,0.,-0.00063007,0.00300578,0.,0.00049195,0.00
 296611,0.,0.00100000,-0.00376214,0.,-0.00111681,0.00061501,0.,0.000028
 22,-0.00136668,0.,-0.00182284,0.00257292,0.,-0.00013713,-0.00391576,0.
 ,-0.00128924,0.00478466,0.,0.00003387,-0.00003029,0.,0.00000733,0.0000
 1416,0.,0.00002289,0.00000092,0.,-0.06257584,-0.20326227,0.,-0.0079893
 6,-0.06848058,0.,0.01564492,0.01560547,0.,-0.00187349,0.00131833,0.,0.
 00010131,-0.00756008,0.,0.00504202,0.00303375,0.,-0.00417939,-0.003962
 84,0.,-0.00008112,-0.00001349,0.,0.00000913,-0.00001656,0.,-0.00466137
 ,0.00227093,0.,-0.00007053,0.00004800,0.,0.00495010,0.00312502,0.,0.00
 007973,0.00003867,0.,-0.00056148,-0.00597539,0.,0.00652709,0.00290778,
 0.,0.00003292,0.00008420,0.,-0.00731726,-0.00993855,0.,0.00001407,-0.0
 0009826,0.,0.01557707,0.00711567,0.,0.00004728,0.00015686,0.,0.0599382
 0,0.00233977,0.,-0.06826511,0.67562143,0.00544373,0.,0.,-0.00293262,0.
 ,0.,-0.00102900,0.,0.,0.00006719,0.,0.,-0.00011612,0.,0.,0.00561078,0.
 ,0.,0.00023642,0.,0.,0.00002317,0.,0.,-0.00004548,0.,0.,0.00007323,0.,
 0.,0.00001087,0.,0.,-0.00000967,0.,0.,0.00000539,0.,0.,0.00007740,0.,0
 .,0.00000165,0.,0.,-0.00008984,0.,0.,-0.00009858,0.,0.,0.00000133,0.,0
 .,-0.00000124,0.,0.,0.00677053,0.,0.,0.00435557,0.,0.,0.00007302,0.,0.
 ,-0.00015579,0.,0.,-0.00046438,0.,0.,-0.00001940,0.,0.,-0.00000768,0.,
 0.,0.00000504,0.,0.,0.00007402,0.,0.,-0.00000235,0.,0.,0.00000122,0.,0
 .,-0.00000438,0.,0.,-0.00000615,0.,0.,0.00010410,0.,0.,-0.00079444,0.,
 0.,0.00002175,0.,0.,-0.00097772,0.,0.,0.00008220,0.,0.,0.00598712,0.,0
 .,0.00028973,0.,0.,-0.06452033,0.,0.,-0.05924760,0.,0.,0.13280481,0.,-
 0.02489624,-0.03884376,0.,-0.01490744,0.01785358,0.,-0.00277143,-0.007
 46366,0.,0.00178048,0.00087369,0.,-0.00000245,0.00026937,0.,-0.0005275
 9,-0.00117677,0.,-0.00763902,0.00205851,0.,0.00127491,-0.00251779,0.,-
 0.00010324,0.00289878,0.,0.00008645,0.00160583,0.,0.00083028,-0.003539
 76,0.,-0.00086515,0.00052617,0.,-0.00011584,-0.00111681,0.,-0.00150693
 ,0.00208120,0.,-0.00037073,-0.00349381,0.,-0.00068668,0.00439978,0.,0.
 00001007,-0.00004002,0.,0.00000177,0.00001967,0.,0.00000991,-0.0000063
 2,0.,0.03251411,0.02418736,0.,-0.00027744,-0.02350621,0.,0.00939789,0.
 01050631,0.,0.00004380,-0.00048748,0.,0.00010295,-0.00504202,0.,0.0035
 4548,0.00230622,0.,-0.00350730,-0.00287978,0.,-0.00006260,0.00000136,0
 .,0.00003017,-0.00002335,0.,-0.00405371,0.00178213,0.,-0.00006299,0.00
 004869,0.,0.00389433,0.00264488,0.,0.00005785,0.00000171,0.,-0.0005814
 4,-0.00652709,0.,0.00732923,0.00371534,0.,0.00008221,0.00007249,0.,-0.
 00957214,-0.00985559,0.,-0.00000072,-0.00006381,0.,0.01980247,0.008973
 34,0.,0.00017443,0.00000094,0.,-0.25679023,-0.00241022,0.,-0.20009790,
 0.09821333,0.,0.63134696,0.,-0.03229440,0.01741745,0.,0.01095699,-0.00
 899457,0.,0.00120399,0.00323486,0.,-0.00045940,-0.00048678,0.,-0.00180
 682,0.00046272,0.,-0.00088467,-0.00657057,0.,0.00475679,-0.00106112,0.
 ,-0.00056087,0.00134345,0.,0.00018959,-0.00191191,0.,-0.00021536,-0.00
 089018,0.,-0.00029851,0.00213132,0.,0.00052617,-0.00026115,0.,-0.00011
 679,0.00061501,0.,0.00090220,-0.00119931,0.,-0.00022669,0.00205536,0.,
 0.00037941,-0.00291909,0.,-0.00005248,-0.00003096,0.,-0.00001738,-0.00
 000629,0.,-0.00001111,0.00000249,0.,0.00065077,-0.06317628,0.,-0.00659
 959,0.01313593,0.,-0.00529569,-0.00841672,0.,0.00044739,0.00012199,0.,
 -0.00068291,0.00303375,0.,-0.00230622,-0.00166087,0.,0.00208977,0.0018
 0386,0.,0.00007249,-0.00000065,0.,-0.00004154,-0.00007336,0.,0.0022308
 7,-0.00129030,0.,0.00003209,-0.00002882,0.,-0.00246892,-0.00145092,0.,
 -0.00003826,-0.00002856,0.,0.00071930,0.00290778,0.,-0.00371534,-0.001
 07764,0.,-0.00010372,-0.00004770,0.,0.00442608,0.00368541,0.,-0.000011
 73,0.00009085,0.,-0.00644136,-0.00894177,0.,0.00143274,-0.00007282,0.,
 -0.02941980,-0.11100781,0.,0.14717214,-0.34053009,0.,-0.01018373,0.774
 36119,0.00420881,0.,0.,-0.00073182,0.,0.,-0.00063770,0.,0.,0.00003141,
 0.,0.,-0.00002507,0.,0.,0.00009929,0.,0.,0.00010335,0.,0.,0.00004608,0
 .,0.,-0.00001569,0.,0.,0.00008279,0.,0.,-0.00000536,0.,0.,0.00000133,0
 .,0.,0.00000186,0.,0.,-0.00000134,0.,0.,-0.00003650,0.,0.,-0.00002233,
 0.,0.,0.00000649,0.,0.,0.00000063,0.,0.,0.00000032,0.,0.,0.00931533,0.
 ,0.,0.00023963,0.,0.,-0.00083897,0.,0.,0.00022505,0.,0.,-0.00008200,0.
 ,0.,0.00007402,0.,0.,-0.00001374,0.,0.,-0.00000988,0.,0.,0.00001337,0.
 ,0.,-0.00000266,0.,0.,0.00000168,0.,0.,-0.00001095,0.,0.,0.00000210,0.
 ,0.,0.00000152,0.,0.,0.00002175,0.,0.,0.00001219,0.,0.,0.00006582,0.,0
 .,-0.00000510,0.,0.,-0.00015642,0.,0.,0.00009487,0.,0.,0.00301596,0.,0
 .,0.00453268,0.,0.,-0.03663366,0.,0.,0.02468936,0.,-0.00535357,0.00200
 355,0.,-0.00037529,0.00077610,0.,0.00004941,-0.00021263,0.,0.00005230,
 0.00010956,0.,-0.00047901,0.00021509,0.,-0.00001625,-0.00173305,0.,-0.
 00015315,0.00001129,0.,0.00001747,-0.00007271,0.,-0.00002070,0.0000702
 6,0.,0.00001688,-0.00000680,0.,-0.00001554,-0.00005877,0.,0.00000177,-
 0.00001738,0.,0.00001585,0.00000733,0.,0.00000513,-0.00000225,0.,-0.00
 004936,0.00002136,0.,-0.00002330,-0.00014618,0.,-0.00001384,-0.0000174
 1,0.,0.00000102,-0.00000246,0.,-0.00000177,0.00000007,0.,-0.00147807,0
 .00309946,0.,0.00067306,0.00021870,0.,-0.00002958,0.00029753,0.,-0.000
 02362,-0.00000744,0.,0.00007059,-0.00000913,0.,0.00003017,0.00004154,0
 .,-0.00004434,-0.00003454,0.,-0.00000087,-0.00000285,0.,0.00000508,0.0
 0000801,0.,-0.00004389,0.00003792,0.,-0.00000108,-0.00000132,0.,0.0000
 5920,0.00001867,0.,0.00000161,-0.00000045,0.,-0.00003359,-0.00003292,0
 .,0.00008221,0.00010372,0.,-0.00003350,0.00000771,0.,0.00010234,-0.000
 02125,0.,-0.00000385,0.00000473,0.,0.00004261,0.00038979,0.,-0.0000279
 9,0.00001165,0.,-0.01165385,-0.02837947,0.,0.01208657,0.01568023,0.,-0
 .12758157,-0.11890229,0.,0.13177225,0.,0.00067526,0.00106451,0.,0.0003
 5996,0.00015430,0.,-0.00005322,0.00008046,0.,-0.00000321,-0.00002999,0
 .,-0.00003717,0.00002097,0.,0.00029953,-0.00005086,0.,0.00009373,0.000
 02784,0.,-0.00003859,0.00002042,0.,-0.00001139,-0.00003814,0.,0.000001
 18,-0.00000750,0.,-0.00001876,0.00002096,0.,0.00001967,-0.00000629,0.,
 0.00000416,0.00001416,0.,0.00001064,-0.00001775,0.,-0.00001011,0.00004
 358,0.,0.00001879,-0.00007416,0.,-0.00000645,-0.00000029,0.,-0.0000024
 6,-0.00000653,0.,-0.00000576,0.00000090,0.,0.00426171,-0.00211153,0.,-
 0.00116773,-0.00056342,0.,0.00029710,-0.00037966,0.,0.00005599,-0.0000
 0377,0.,-0.00014502,-0.00001656,0.,0.00002335,-0.00007336,0.,0.0000430
 6,0.00002120,0.,0.00001273,0.00000352,0.,-0.00000801,-0.00002065,0.,0.
 00003872,-0.00001267,0.,-0.00000412,-0.00000567,0.,-0.00004155,-0.0000
 2797,0.,0.00000327,-0.00000424,0.,-0.00000888,0.00008420,0.,-0.0000724
 9,-0.00004770,0.,-0.00000771,0.00000942,0.,0.00014953,0.00026937,0.,-0
 .00000761,-0.00000126,0.,-0.00046685,0.00004387,0.,-0.00004303,0.00000
 405,0.,0.00111138,0.00244655,0.,-0.01574580,-0.02041517,0.,-0.11817669
 ,-0.26526000,0.,0.12744423,0.28260046,0.00592537,0.,0.,0.00582153,0.,0
 .,-0.00009222,0.,0.,0.00021526,0.,0.,-0.00106076,0.,0.,-0.00346374,0.,
 0.,-0.00034007,0.,0.,0.00003991,0.,0.,0.00004429,0.,0.,0.00000608,0.,0
 .,0.00001530,0.,0.,-0.00000235,0.,0.,0.00001226,0.,0.,-0.00001929,0.,0
 .,0.00007179,0.,0.,0.00001342,0.,0.,0.00001233,0.,0.,-0.00000266,0.,0.
 ,-0.00000178,0.,0.,-0.00081825,0.,0.,-0.00046168,0.,0.,0.00002471,0.,0
 .,0.00002310,0.,0.,0.00006647,0.,0.,-0.00000438,0.,0.,-0.00005957,0.,0
 .,-0.00000123,0.,0.,-0.00001095,0.,0.,-0.00002029,0.,0.,-0.00000373,0.
 ,0.,0.00001493,0.,0.,0.00002072,0.,0.,0.00000690,0.,0.,0.00598712,0.,0
 .,-0.00015642,0.,0.,0.00725441,0.,0.,-0.00067770,0.,0.,-0.06050658,0.,
 0.,0.00381155,0.,0.,-0.06474693,0.,0.,0.00449577,0.,0.,0.00375307,0.,0
 .,-0.00234534,0.,0.,0.13297804,0.,0.04356842,0.01232273,0.,-0.00005266
 ,-0.00582232,0.,0.00505204,-0.00288787,0.,-0.00429366,-0.00333008,0.,-
 0.00158409,0.00089414,0.,-0.02931950,0.01833084,0.,-0.00467369,0.00245
 631,0.,0.00469569,0.00341835,0.,0.00042730,-0.00013259,0.,-0.00035084,
 -0.00002795,0.,0.00379202,-0.00200468,0.,-0.00405371,0.00223087,0.,-0.
 00022565,-0.00466137,0.,-0.00515840,0.00783915,0.,-0.00099179,-0.01202
 484,0.,0.00025675,0.01326519,0.,0.00003756,-0.00013898,0.,-0.00004389,
 0.00003872,0.,0.00003241,-0.00004304,0.,-0.00184232,0.01435009,0.,0.00
 177528,-0.01267504,0.,0.00492490,0.00842189,0.,-0.00000884,-0.00022633
 ,0.,0.00048487,-0.00495010,0.,0.00389433,0.00246892,0.,-0.00379294,-0.
 00228051,0.,-0.00004532,-0.00004198,0.,0.00005920,0.00004155,0.,-0.003
 79371,0.00224150,0.,-0.00005268,0.00001576,0.,0.00391900,0.00225135,0.
 ,0.00005692,0.00000995,0.,-0.00240546,-0.01557707,0.,0.01980247,0.0064
 4136,0.,0.00004261,0.00046685,0.,-0.04740841,-0.06324218,0.,-0.0000577
 1,-0.00029512,0.,-0.36048403,0.03104221,0.,-0.01152181,-0.00159975,0.,
 -0.14525781,0.04511595,0.,-0.00266840,-0.01978836,0.,-0.04403573,0.045
 44178,0.,0.00148703,0.00132676,0.,0.70781020,0.,-0.00594787,-0.0511054
 0,0.,-0.00593462,-0.00086978,0.,-0.00195743,0.00068927,0.,0.00185053,0
 .00221155,0.,0.00021729,-0.00174255,0.,0.01650679,-0.00771665,0.,0.002
 62403,-0.00199173,0.,-0.00272516,-0.00147839,0.,-0.00023048,0.00003732
 ,0.,0.00039857,-0.00021385,0.,-0.00211754,0.00132033,0.,0.00178213,-0.
 00129030,0.,0.00028336,0.00227093,0.,0.00255790,-0.00409090,0.,0.00067
 916,0.00557673,0.,0.00050202,-0.00619909,0.,-0.00007104,0.00005262,0.,
 0.00003792,-0.00001267,0.,-0.00004378,-0.00000443,0.,0.00056866,-0.011
 01873,0.,-0.00056089,0.00900605,0.,-0.00346654,-0.00544370,0.,0.000043
 05,0.00006837,0.,-0.00010849,0.00312502,0.,-0.00264488,-0.00145092,0.,
 0.00230011,0.00131587,0.,0.00001938,0.00002543,0.,-0.00001867,-0.00002
 797,0.,0.00224150,-0.00133797,0.,0.00003436,0.00000072,0.,-0.00225135,
 -0.00123356,0.,-0.00003112,-0.00002458,0.,-0.00039912,0.00711567,0.,-0
 .00897334,-0.00894177,0.,-0.00038979,0.00004387,0.,-0.02426711,0.02571
 280,0.,-0.00032731,-0.00031525,0.,-0.03104221,-0.13037142,0.,0.0295448
 4,0.00383649,0.,0.08323268,-0.25328174,0.,-0.00484915,0.01396438,0.,0.
 02463525,-0.00423055,0.,-0.00174519,0.00090013,0.,0.04832653,0.6824810
 4,0.00549067,0.,0.,0.00017519,0.,0.,-0.00011245,0.,0.,0.00004725,0.,0.
 ,-0.00073709,0.,0.,-0.00082472,0.,0.,-0.00002878,0.,0.,0.00007831,0.,0
 .,-0.00000505,0.,0.,-0.00007963,0.,0.,0.00000260,0.,0.,0.00000122,0.,0
 .,-0.00000589,0.,0.,-0.00000889,0.,0.,0.00004418,0.,0.,0.00011665,0.,0
 .,-0.00000631,0.,0.,0.00000168,0.,0.,0.00000181,0.,0.,0.00012398,0.,0.
 ,0.00001001,0.,0.,0.00000372,0.,0.,0.00001935,0.,0.,-0.00000603,0.,0.,
 -0.00000615,0.,0.,0.00000058,0.,0.,0.00000145,0.,0.,0.00000210,0.,0.,-
 0.00000373,0.,0.,-0.00000304,0.,0.,0.00002072,0.,0.,0.00000104,0.,0.,-
 0.00045565,0.,0.,0.00028973,0.,0.,0.00009487,0.,0.,0.00789324,0.,0.,-0
 .00004595,0.,0.,0.00381155,0.,0.,-0.00466859,0.,0.,0.00322155,0.,0.,-0
 .00014106,0.,0.,-0.00324997,0.,0.,0.00025574,0.,0.,-0.03605946,0.,0.,0
 .02456538,0.,-0.00156285,0.00293892,0.,0.00060634,0.00058542,0.,-0.000
 11036,0.00012258,0.,-0.00012505,-0.00009887,0.,0.00009001,-0.00007150,
 0.,-0.00049566,0.00055466,0.,-0.00000805,0.00008995,0.,0.00009667,0.00
 003439,0.,-0.00000449,-0.00000482,0.,-0.00002070,0.00000940,0.,0.00006
 202,-0.00004088,0.,-0.00006299,0.00003209,0.,0.00001230,-0.00007053,0.
 ,-0.00008974,0.00013266,0.,0.00002174,-0.00019916,0.,0.00000778,0.0002
 9224,0.,-0.00000135,0.00000364,0.,-0.00000108,-0.00000412,0.,-0.000002
 91,0.00000109,0.,0.00013091,0.00026493,0.,-0.00002225,-0.00024068,0.,0
 .00009632,0.00013459,0.,-0.00000259,0.00000958,0.,-0.00000287,-0.00007
 973,0.,0.00005785,0.00003826,0.,-0.00005196,-0.00003824,0.,0.00000204,
 0.00000141,0.,0.00000161,-0.00000327,0.,-0.00005268,0.00003436,0.,-0.0
 0000294,-0.00000265,0.,0.00005692,0.00003112,0.,0.00000384,-0.00000139
 ,0.,-0.00055374,-0.00004728,0.,0.00017443,-0.00143274,0.,-0.00002799,0
 .00004303,0.,-0.00533950,0.00184503,0.,-0.00008229,-0.00014254,0.,-0.0
 1152181,-0.02954484,0.,0.00105481,0.00038625,0.,0.01094581,0.01392299,
 0.,0.00009675,-0.00048234,0.,0.00113743,0.00131289,0.,-0.00006719,-0.0
 0046752,0.,-0.12733990,-0.11785591,0.,0.13288628,0.,0.00410575,-0.0026
 4537,0.,-0.00137838,-0.00059724,0.,0.00034429,-0.00031809,0.,0.0001087
 1,0.00007076,0.,-0.00009191,0.00001948,0.,0.00074812,0.00012305,0.,-0.
 00013287,-0.00006432,0.,-0.00004695,-0.00005780,0.,-0.00001663,0.00002
 618,0.,0.00005028,-0.00003325,0.,-0.00004177,-0.00001085,0.,0.00004869
 ,-0.00002882,0.,0.00000531,0.00004800,0.,0.00004920,-0.00007244,0.,-0.
 00001385,0.00011748,0.,-0.00001098,-0.00014499,0.,-0.00000812,-0.00000
 258,0.,-0.00000132,-0.00000567,0.,-0.00000476,0.00000060,0.,-0.0000845
 4,0.00015608,0.,0.00007236,0.00007704,0.,0.00000907,-0.00003666,0.,0.0
 0002716,-0.00002452,0.,-0.00001228,0.00003867,0.,-0.00000171,-0.000028
 56,0.,0.00000731,0.00000070,0.,0.00000902,-0.00000348,0.,0.00000045,-0
 .00000424,0.,0.00001576,0.00000072,0.,-0.00000265,-0.00000443,0.,-0.00
 000995,-0.00002458,0.,0.00000139,-0.00000462,0.,-0.00004118,0.00015686
 ,0.,-0.00000094,-0.00007282,0.,-0.00001165,0.00000405,0.,0.00086495,0.
 00169440,0.,0.00000222,-0.00000341,0.,0.00159975,0.00383649,0.,-0.0003
 8625,0.00085176,0.,-0.01548028,-0.02024173,0.,0.00044320,0.00007513,0.
 ,-0.00198784,0.00110394,0.,0.00121405,0.00033469,0.,-0.11802730,-0.266
 08208,0.,0.12803385,0.28180974,-0.00077010,0.,0.,0.00414013,0.,0.,0.00
 009618,0.,0.,0.00002646,0.,0.,0.00003023,0.,0.,-0.00074421,0.,0.,0.000
 01587,0.,0.,-0.00001010,0.,0.,0.00001842,0.,0.,0.00003086,0.,0.,-0.000
 00142,0.,0.,-0.00000124,0.,0.,0.00000570,0.,0.,-0.00005151,0.,0.,0.000
 00605,0.,0.,0.00003275,0.,0.,0.00001216,0.,0.,0.00000032,0.,0.,-0.0000
 0672,0.,0.,0.00302810,0.,0.,-0.00227463,0.,0.,-0.00018565,0.,0.,0.0002
 8073,0.,0.,0.00006727,0.,0.,0.00000504,0.,0.,-0.00000157,0.,0.,0.00001
 437,0.,0.,-0.00000988,0.,0.,-0.00000178,0.,0.,0.00000181,0.,0.,-0.0000
 0123,0.,0.,0.00000145,0.,0.,-0.00001281,0.,0.,0.00008220,0.,0.,-0.0000
 0510,0.,0.,0.00015043,0.,0.,-0.00000614,0.,0.,-0.00067770,0.,0.,-0.000
 04595,0.,0.,0.00915164,0.,0.,-0.03615934,0.,0.,0.00453306,0.,0.,-0.005
 56890,0.,0.,0.00024102,0.,0.,0.00017389,0.,0.,0.02438985,0.,0.00050072
 ,-0.00015742,0.,0.00067768,-0.00274167,0.,-0.00067824,0.00067131,0.,-0
 .00001121,-0.00028652,0.,0.00002076,0.00000559,0.,-0.00004793,-0.00000
 583,0.,0.00021362,0.00002862,0.,-0.00009858,0.00007185,0.,-0.00000897,
 -0.00002799,0.,0.00008468,-0.00000811,0.,-0.00000060,0.00003039,0.,0.0
 0000991,-0.00001111,0.,-0.00000327,0.00002289,0.,0.00000129,-0.0000544
 7,0.,-0.00000940,0.00003060,0.,-0.00001490,-0.00003058,0.,-0.00000918,
 -0.00000153,0.,-0.00000177,-0.00000576,0.,-0.00000849,-0.00000286,0.,-
 0.01268387,0.00177521,0.,0.00084332,0.00165392,0.,0.00014237,-0.000467
 72,0.,0.00055186,-0.00081209,0.,-0.00009584,0.00008112,0.,-0.00006260,
 -0.00007249,0.,0.00004537,-0.00000555,0.,0.00002635,-0.00001425,0.,-0.
 00000087,-0.00001273,0.,0.00003241,-0.00004378,0.,-0.00000291,-0.00000
 476,0.,-0.00004532,-0.00001938,0.,0.00000204,-0.00000902,0.,0.00000009
 ,-0.00001407,0.,-0.00000072,0.00001173,0.,-0.00000385,0.00000761,0.,0.
 00003250,-0.00000859,0.,-0.00000984,-0.00000058,0.,-0.00005771,0.00032
 731,0.,-0.00008229,-0.00000222,0.,0.00123159,0.00277040,0.,-0.33391109
 ,-0.00074502,0.,-0.01243664,-0.00178788,0.,0.00095222,0.00029939,0.,-0
 .00065605,-0.00042707,0.,0.00001109,0.00003323,0.,0.35556225,0.,0.0001
 8044,-0.00073572,0.,-0.00128723,-0.00489003,0.,-0.00139562,0.00053706,
 0.,-0.00002709,-0.00042722,0.,0.00009469,-0.00000893,0.,-0.00009865,0.
 00015588,0.,-0.00012670,0.00013354,0.,-0.00012175,0.00002973,0.,-0.000
 01740,0.00004359,0.,0.00011914,0.00004143,0.,0.00002315,-0.00001493,0.
 ,-0.00000632,0.00000249,0.,-0.00002377,0.00000092,0.,-0.00000786,-0.00
 003748,0.,-0.00001787,-0.00001808,0.,-0.00001408,0.00006727,0.,-0.0000
 0074,0.00000137,0.,0.00000007,0.00000090,0.,-0.00000286,-0.00000535,0.
 ,-0.02777906,0.00351217,0.,-0.00135614,0.00146729,0.,0.00042816,0.0000
 9435,0.,0.00083301,-0.00029185,0.,-0.00001417,-0.00001349,0.,-0.000001
 36,-0.00000065,0.,-0.00003150,-0.00005473,0.,0.00001425,-0.00003502,0.
 ,0.00000285,0.00000352,0.,-0.00004304,-0.00000443,0.,0.00000109,0.0000
 0060,0.,0.00004198,0.00002543,0.,-0.00000141,-0.00000348,0.,0.00001538
 ,-0.00009826,0.,0.00006381,0.00009085,0.,-0.00000473,-0.00000126,0.,-0
 .00015939,-0.00016807,0.,0.00000058,0.00000531,0.,0.00029512,-0.000315
 25,0.,0.00014254,-0.00000341,0.,0.00152676,-0.00471741,0.,-0.00147696,
 -0.05918691,0.,0.02966656,0.00411944,0.,-0.00038608,0.00100960,0.,0.00
 101869,0.00072141,0.,-0.00002634,-0.00003327,0.,-0.00004016,0.05900108
 \\0.,-0.00000392,0.00000247,0.,0.00000275,-0.00000320,0.,0.00000146,0.
 ,0.,-0.00000146,0.,0.,-0.00000275,-0.00000320,0.,0.00000392,0.00000247
 ,0.,0.00000275,0.00000320,0.,-0.00000275,0.00000320,0.,0.00000392,-0.0
 0000247,0.,-0.00000392,-0.00000247,0.,0.00000159,-0.00000237,0.,-0.000
 00002,-0.00000129,0.,-0.00000126,0.00000134,0.,0.00000233,-0.00000020,
 0.,-0.00000278,0.,0.,0.00000233,0.00000020,0.,0.00000029,0.,0.,-0.0000
 0087,0.00000075,0.,-0.00000011,-0.00000106,0.,-0.00000233,0.00000020,0
 .,0.00000278,0.,0.,-0.00000233,-0.00000020,0.,-0.00000029,0.,0.,0.0000
 0126,0.00000134,0.,0.00000002,-0.00000129,0.,-0.00000159,-0.00000237,0
 .,0.00000011,-0.00000106,0.,0.00000087,0.00000075,0.,-0.00000829,0.000
 00287,0.,0.00000197,-0.00000089,0.,0.00000829,0.00000287,0.,-0.0000019
 7,-0.00000089,0.,-0.00000126,-0.00000134,0.,-0.00000002,0.00000129,0.,
 -0.00000087,-0.00000075,0.,0.00000159,0.00000237,0.,-0.00000011,0.0000
 0106,0.,-0.00000829,-0.00000287,0.,0.00000197,0.00000089,0.,-0.0000015
 9,0.00000237,0.,0.00000126,-0.00000134,0.,0.00000002,0.00000129,0.,0.0
 0000087,-0.00000075,0.,0.00000829,-0.00000287,0.,-0.00000197,0.0000008
 9,0.,0.00000011,0.00000106\\\@
 NOTHING RESEMBLES A NEW PHENOMENON AS MUCH AS A MISTAKE.
                               -- ENRICO FERMI (?)
 Job cpu time:       1 days  6 hours 22 minutes 51.6 seconds.
 Elapsed time:       0 days  1 hours 31 minutes 22.6 seconds.
 File lengths (MBytes):  RWF=   2297 Int=      0 D2E=      0 Chk=     80 Scr=      1
 Normal termination of Gaussian 16 at Tue Feb  7 19:30:25 2023.
