 Entering Gaussian System, Link 0=g16
 Input=/home/giogina/Gaussian/ovalene excited opt freq disp.gjf
 Output=/home/giogina/Gaussian/ovalene excited opt freq disp.log
 Initial command:
 /opt//g16/l1.exe "/opt/g16/scratch/Gau-1164588.inp" -scrdir="/opt/g16/scratch/"
 Default is to use a total of  12 processors:
                               12 via shared-memory
                                1 via Linda
 Entering Link 1 = /opt//g16/l1.exe PID=   1164592.
  
 Copyright (c) 1988,1990,1992,1993,1995,1998,2003,2009,2016,
            Gaussian, Inc.  All Rights Reserved.
  
 This is part of the Gaussian(R) 16 program.  It is based on
 the Gaussian(R) 09 system (copyright 2009, Gaussian, Inc.),
 the Gaussian(R) 03 system (copyright 2003, Gaussian, Inc.),
 the Gaussian(R) 98 system (copyright 1998, Gaussian, Inc.),
 the Gaussian(R) 94 system (copyright 1995, Gaussian, Inc.),
 the Gaussian 92(TM) system (copyright 1992, Gaussian, Inc.),
 the Gaussian 90(TM) system (copyright 1990, Gaussian, Inc.),
 the Gaussian 88(TM) system (copyright 1988, Gaussian, Inc.),
 the Gaussian 86(TM) system (copyright 1986, Carnegie Mellon
 University), and the Gaussian 82(TM) system (copyright 1983,
 Carnegie Mellon University). Gaussian is a federally registered
 trademark of Gaussian, Inc.
  
 This software contains proprietary and confidential information,
 including trade secrets, belonging to Gaussian, Inc.
  
 This software is provided under written license and may be
 used, copied, transmitted, or stored only in accord with that
 written license.
  
 The following legend is applicable only to US Government
 contracts under FAR:
  
                    RESTRICTED RIGHTS LEGEND
  
 Use, reproduction and disclosure by the US Government is
 subject to restrictions as set forth in subparagraphs (a)
 and (c) of the Commercial Computer Software - Restricted
 Rights clause in FAR 52.227-19.
  
 Gaussian, Inc.
 340 Quinnipiac St., Bldg. 40, Wallingford CT 06492
  
  
 ---------------------------------------------------------------
 Warning -- This program may not be used in any manner that
 competes with the business of Gaussian, Inc. or will provide
 assistance to any competitor of Gaussian, Inc.  The licensee
 of this program is prohibited from giving any competitor of
 Gaussian, Inc. access to this program.  By using this program,
 the user acknowledges that Gaussian, Inc. is engaged in the
 business of creating and licensing software in the field of
 computational chemistry and represents and warrants to the
 licensee that it is not a competitor of Gaussian, Inc. and that
 it will not use this program in any manner prohibited above.
 ---------------------------------------------------------------
  

 Cite this work as:
 Gaussian 16, Revision A.03,
 M. J. Frisch, G. W. Trucks, H. B. Schlegel, G. E. Scuseria, 
 M. A. Robb, J. R. Cheeseman, G. Scalmani, V. Barone, 
 G. A. Petersson, H. Nakatsuji, X. Li, M. Caricato, A. V. Marenich, 
 J. Bloino, B. G. Janesko, R. Gomperts, B. Mennucci, H. P. Hratchian, 
 J. V. Ortiz, A. F. Izmaylov, J. L. Sonnenberg, D. Williams-Young, 
 F. Ding, F. Lipparini, F. Egidi, J. Goings, B. Peng, A. Petrone, 
 T. Henderson, D. Ranasinghe, V. G. Zakrzewski, J. Gao, N. Rega, 
 G. Zheng, W. Liang, M. Hada, M. Ehara, K. Toyota, R. Fukuda, 
 J. Hasegawa, M. Ishida, T. Nakajima, Y. Honda, O. Kitao, H. Nakai, 
 T. Vreven, K. Throssell, J. A. Montgomery, Jr., J. E. Peralta, 
 F. Ogliaro, M. J. Bearpark, J. J. Heyd, E. N. Brothers, K. N. Kudin, 
 V. N. Staroverov, T. A. Keith, R. Kobayashi, J. Normand, 
 K. Raghavachari, A. P. Rendell, J. C. Burant, S. S. Iyengar, 
 J. Tomasi, M. Cossi, J. M. Millam, M. Klene, C. Adamo, R. Cammi, 
 J. W. Ochterski, R. L. Martin, K. Morokuma, O. Farkas, 
 J. B. Foresman, and D. J. Fox, Gaussian, Inc., Wallingford CT, 2016.
 
 ******************************************
 Gaussian 16:  ES64L-G16RevA.03 25-Dec-2016
                 7-Feb-2023 
 ******************************************
 %nprocshared=16
 Will use up to   16 processors via shared memory.
 %mem=32GB
 %chk=ovalene excited opt freq disp.chk
 ----------------------------------------------------------------------
 # opt=tight freq=(hpmodes,savenm) td=(nstates=6,root=1) b3lyp/6-311++g
 (2d,2p) geom=connectivity empiricaldispersion=gd3bj
 ----------------------------------------------------------------------
 1/7=10,18=20,19=15,26=3,38=1,57=2/1,3;
 2/9=110,12=2,17=6,18=5,40=1/2;
 3/5=4,6=6,7=1212,11=9,25=1,30=1,71=1,74=-5,124=41/1,2,3,8;
 4//1;
 5/5=2,38=5/2;
 8/6=1,10=2,107=1,108=6/1;
 9/8=1,15=2,41=6,42=1,70=2/14;
 10/5=4,28=1/2;
 6/7=2,8=2,9=2,10=2/1;
 7/12=6,13=5,14=1,92=1/1,2,3,16;
 1/7=10,18=20,19=15,26=3/3(2);
 2/9=110/2;
 99//99;
 2/9=110/2;
 3/5=4,6=6,7=1212,11=9,25=1,30=1,71=1,74=-5,124=41/1,2,3,8;
 4/5=5,16=3,69=1/1;
 5/5=2,38=5/2;
 8/6=1,10=2,107=1,108=6/1;
 9/8=1,15=2,41=6,42=1,49=4,70=2/14;
 10/5=4,28=1/2;
 7/12=6,13=5,14=1,92=1/1,2,3,16;
 1/7=10,18=20,19=15,26=3/3(-8);
 2/9=110/2;
 6/7=2,8=2,9=2,10=2/1;
 99//99;
 ------------------------------------------------------------------
 Ovalene excited state optimization+freq with dispersion correction
 ------------------------------------------------------------------
 Symbolic Z-matrix:
 Charge =  0 Multiplicity = 1
 C                     0.        2.46123   0.71143 
 C                     0.        1.23523   1.4186 
 C                     0.        0.        0.70722 
 C                     0.        0.       -0.70722 
 C                     0.        1.23523  -1.4186 
 C                     0.        2.46123  -0.71143 
 C                     0.       -1.23523   1.4186 
 C                     0.       -1.23523  -1.4186 
 C                     0.       -2.46123  -0.71143 
 C                     0.       -2.46123   0.71143 
 C                     0.       -3.69819  -1.42435 
 C                     0.       -3.66866  -2.83364 
 C                     0.       -2.47822  -3.52614 
 C                     0.       -1.22975  -2.8463 
 C                     0.        0.       -3.52562 
 C                     0.        1.22975  -2.8463 
 H                     0.        0.       -4.60849 
 H                     0.       -4.60572  -3.37518 
 H                     0.       -2.48162  -4.60802 
 C                     0.        1.22975   2.8463 
 C                     0.        0.        3.52562 
 C                     0.       -1.22975   2.8463 
 H                     0.        0.        4.60849 
 C                     0.       -2.47822   3.52614 
 C                     0.       -3.66866   2.83364 
 C                     0.       -3.69819   1.42435 
 H                     0.       -2.48162   4.60802 
 H                     0.       -4.60572   3.37518 
 C                     0.       -4.92142  -0.68092 
 H                     0.       -5.85635  -1.22578 
 C                     0.       -4.92142   0.68092 
 H                     0.       -5.85635   1.22578 
 C                     0.        2.47822  -3.52614 
 C                     0.        3.66866  -2.83364 
 H                     0.        4.60572  -3.37518 
 C                     0.        3.69819  -1.42435 
 H                     0.        2.48162  -4.60802 
 C                     0.        4.92142  -0.68092 
 H                     0.        5.85635  -1.22578 
 C                     0.        3.69819   1.42435 
 C                     0.        2.47822   3.52614 
 C                     0.        3.66866   2.83364 
 H                     0.        4.60572   3.37518 
 C                     0.        4.92142   0.68092 
 H                     0.        5.85635   1.22578 
 H                     0.        2.48162   4.60802 
 

 GradGradGradGradGradGradGradGradGradGradGradGradGradGradGradGradGradGrad
 Berny optimization.
 Initialization pass.
                           ----------------------------
                           !    Initial Parameters    !
                           ! (Angstroms and Degrees)  !
 --------------------------                            --------------------------
 ! Name  Definition              Value          Derivative Info.                !
 --------------------------------------------------------------------------------
 ! R1    R(1,2)                  1.4153         estimate D2E/DX2                !
 ! R2    R(1,6)                  1.4229         estimate D2E/DX2                !
 ! R3    R(1,40)                 1.4277         estimate D2E/DX2                !
 ! R4    R(2,3)                  1.4254         estimate D2E/DX2                !
 ! R5    R(2,20)                 1.4277         estimate D2E/DX2                !
 ! R6    R(3,4)                  1.4144         estimate D2E/DX2                !
 ! R7    R(3,7)                  1.4254         estimate D2E/DX2                !
 ! R8    R(4,5)                  1.4254         estimate D2E/DX2                !
 ! R9    R(4,8)                  1.4254         estimate D2E/DX2                !
 ! R10   R(5,6)                  1.4153         estimate D2E/DX2                !
 ! R11   R(5,16)                 1.4277         estimate D2E/DX2                !
 ! R12   R(6,36)                 1.4277         estimate D2E/DX2                !
 ! R13   R(7,10)                 1.4153         estimate D2E/DX2                !
 ! R14   R(7,22)                 1.4277         estimate D2E/DX2                !
 ! R15   R(8,9)                  1.4153         estimate D2E/DX2                !
 ! R16   R(8,14)                 1.4277         estimate D2E/DX2                !
 ! R17   R(9,10)                 1.4229         estimate D2E/DX2                !
 ! R18   R(9,11)                 1.4277         estimate D2E/DX2                !
 ! R19   R(10,26)                1.4277         estimate D2E/DX2                !
 ! R20   R(11,12)                1.4096         estimate D2E/DX2                !
 ! R21   R(11,29)                1.4314         estimate D2E/DX2                !
 ! R22   R(12,13)                1.3772         estimate D2E/DX2                !
 ! R23   R(12,18)                1.0823         estimate D2E/DX2                !
 ! R24   R(13,14)                1.4216         estimate D2E/DX2                !
 ! R25   R(13,19)                1.0819         estimate D2E/DX2                !
 ! R26   R(14,15)                1.4049         estimate D2E/DX2                !
 ! R27   R(15,16)                1.4049         estimate D2E/DX2                !
 ! R28   R(15,17)                1.0829         estimate D2E/DX2                !
 ! R29   R(16,33)                1.4216         estimate D2E/DX2                !
 ! R30   R(20,21)                1.4049         estimate D2E/DX2                !
 ! R31   R(20,41)                1.4216         estimate D2E/DX2                !
 ! R32   R(21,22)                1.4049         estimate D2E/DX2                !
 ! R33   R(21,23)                1.0829         estimate D2E/DX2                !
 ! R34   R(22,24)                1.4216         estimate D2E/DX2                !
 ! R35   R(24,25)                1.3772         estimate D2E/DX2                !
 ! R36   R(24,27)                1.0819         estimate D2E/DX2                !
 ! R37   R(25,26)                1.4096         estimate D2E/DX2                !
 ! R38   R(25,28)                1.0823         estimate D2E/DX2                !
 ! R39   R(26,31)                1.4314         estimate D2E/DX2                !
 ! R40   R(29,30)                1.0821         estimate D2E/DX2                !
 ! R41   R(29,31)                1.3618         estimate D2E/DX2                !
 ! R42   R(31,32)                1.0821         estimate D2E/DX2                !
 ! R43   R(33,34)                1.3772         estimate D2E/DX2                !
 ! R44   R(33,37)                1.0819         estimate D2E/DX2                !
 ! R45   R(34,35)                1.0823         estimate D2E/DX2                !
 ! R46   R(34,36)                1.4096         estimate D2E/DX2                !
 ! R47   R(36,38)                1.4314         estimate D2E/DX2                !
 ! R48   R(38,39)                1.0821         estimate D2E/DX2                !
 ! R49   R(38,44)                1.3618         estimate D2E/DX2                !
 ! R50   R(40,42)                1.4096         estimate D2E/DX2                !
 ! R51   R(40,44)                1.4314         estimate D2E/DX2                !
 ! R52   R(41,42)                1.3772         estimate D2E/DX2                !
 ! R53   R(41,46)                1.0819         estimate D2E/DX2                !
 ! R54   R(42,43)                1.0823         estimate D2E/DX2                !
 ! R55   R(44,45)                1.0821         estimate D2E/DX2                !
 ! A1    A(2,1,6)              119.9767         estimate D2E/DX2                !
 ! A2    A(2,1,40)             120.0664         estimate D2E/DX2                !
 ! A3    A(6,1,40)             119.9568         estimate D2E/DX2                !
 ! A4    A(1,2,3)              120.0854         estimate D2E/DX2                !
 ! A5    A(1,2,20)             120.1967         estimate D2E/DX2                !
 ! A6    A(3,2,20)             119.7179         estimate D2E/DX2                !
 ! A7    A(2,3,4)              119.9379         estimate D2E/DX2                !
 ! A8    A(2,3,7)              120.1242         estimate D2E/DX2                !
 ! A9    A(4,3,7)              119.9379         estimate D2E/DX2                !
 ! A10   A(3,4,5)              119.9379         estimate D2E/DX2                !
 ! A11   A(3,4,8)              119.9379         estimate D2E/DX2                !
 ! A12   A(5,4,8)              120.1242         estimate D2E/DX2                !
 ! A13   A(4,5,6)              120.0854         estimate D2E/DX2                !
 ! A14   A(4,5,16)             119.7179         estimate D2E/DX2                !
 ! A15   A(6,5,16)             120.1967         estimate D2E/DX2                !
 ! A16   A(1,6,5)              119.9767         estimate D2E/DX2                !
 ! A17   A(1,6,36)             119.9568         estimate D2E/DX2                !
 ! A18   A(5,6,36)             120.0664         estimate D2E/DX2                !
 ! A19   A(3,7,10)             120.0854         estimate D2E/DX2                !
 ! A20   A(3,7,22)             119.7179         estimate D2E/DX2                !
 ! A21   A(10,7,22)            120.1967         estimate D2E/DX2                !
 ! A22   A(4,8,9)              120.0854         estimate D2E/DX2                !
 ! A23   A(4,8,14)             119.7179         estimate D2E/DX2                !
 ! A24   A(9,8,14)             120.1967         estimate D2E/DX2                !
 ! A25   A(8,9,10)             119.9767         estimate D2E/DX2                !
 ! A26   A(8,9,11)             120.0664         estimate D2E/DX2                !
 ! A27   A(10,9,11)            119.9568         estimate D2E/DX2                !
 ! A28   A(7,10,9)             119.9767         estimate D2E/DX2                !
 ! A29   A(7,10,26)            120.0664         estimate D2E/DX2                !
 ! A30   A(9,10,26)            119.9568         estimate D2E/DX2                !
 ! A31   A(9,11,12)            118.7565         estimate D2E/DX2                !
 ! A32   A(9,11,29)            118.7538         estimate D2E/DX2                !
 ! A33   A(12,11,29)           122.4896         estimate D2E/DX2                !
 ! A34   A(11,12,13)           121.3876         estimate D2E/DX2                !
 ! A35   A(11,12,18)           118.8239         estimate D2E/DX2                !
 ! A36   A(13,12,18)           119.7885         estimate D2E/DX2                !
 ! A37   A(12,13,14)           121.2428         estimate D2E/DX2                !
 ! A38   A(12,13,19)           120.0074         estimate D2E/DX2                !
 ! A39   A(14,13,19)           118.7499         estimate D2E/DX2                !
 ! A40   A(8,14,13)            118.3499         estimate D2E/DX2                !
 ! A41   A(8,14,15)            119.1365         estimate D2E/DX2                !
 ! A42   A(13,14,15)           122.5136         estimate D2E/DX2                !
 ! A43   A(14,15,16)           122.167          estimate D2E/DX2                !
 ! A44   A(14,15,17)           118.9165         estimate D2E/DX2                !
 ! A45   A(16,15,17)           118.9165         estimate D2E/DX2                !
 ! A46   A(5,16,15)            119.1365         estimate D2E/DX2                !
 ! A47   A(5,16,33)            118.3499         estimate D2E/DX2                !
 ! A48   A(15,16,33)           122.5136         estimate D2E/DX2                !
 ! A49   A(2,20,21)            119.1365         estimate D2E/DX2                !
 ! A50   A(2,20,41)            118.3499         estimate D2E/DX2                !
 ! A51   A(21,20,41)           122.5136         estimate D2E/DX2                !
 ! A52   A(20,21,22)           122.167          estimate D2E/DX2                !
 ! A53   A(20,21,23)           118.9165         estimate D2E/DX2                !
 ! A54   A(22,21,23)           118.9165         estimate D2E/DX2                !
 ! A55   A(7,22,21)            119.1365         estimate D2E/DX2                !
 ! A56   A(7,22,24)            118.3499         estimate D2E/DX2                !
 ! A57   A(21,22,24)           122.5136         estimate D2E/DX2                !
 ! A58   A(22,24,25)           121.2428         estimate D2E/DX2                !
 ! A59   A(22,24,27)           118.7499         estimate D2E/DX2                !
 ! A60   A(25,24,27)           120.0074         estimate D2E/DX2                !
 ! A61   A(24,25,26)           121.3876         estimate D2E/DX2                !
 ! A62   A(24,25,28)           119.7885         estimate D2E/DX2                !
 ! A63   A(26,25,28)           118.8239         estimate D2E/DX2                !
 ! A64   A(10,26,25)           118.7565         estimate D2E/DX2                !
 ! A65   A(10,26,31)           118.7538         estimate D2E/DX2                !
 ! A66   A(25,26,31)           122.4896         estimate D2E/DX2                !
 ! A67   A(11,29,30)           118.4781         estimate D2E/DX2                !
 ! A68   A(11,29,31)           121.2893         estimate D2E/DX2                !
 ! A69   A(30,29,31)           120.2326         estimate D2E/DX2                !
 ! A70   A(26,31,29)           121.2893         estimate D2E/DX2                !
 ! A71   A(26,31,32)           118.4781         estimate D2E/DX2                !
 ! A72   A(29,31,32)           120.2326         estimate D2E/DX2                !
 ! A73   A(16,33,34)           121.2428         estimate D2E/DX2                !
 ! A74   A(16,33,37)           118.7499         estimate D2E/DX2                !
 ! A75   A(34,33,37)           120.0074         estimate D2E/DX2                !
 ! A76   A(33,34,35)           119.7885         estimate D2E/DX2                !
 ! A77   A(33,34,36)           121.3876         estimate D2E/DX2                !
 ! A78   A(35,34,36)           118.8239         estimate D2E/DX2                !
 ! A79   A(6,36,34)            118.7565         estimate D2E/DX2                !
 ! A80   A(6,36,38)            118.7538         estimate D2E/DX2                !
 ! A81   A(34,36,38)           122.4896         estimate D2E/DX2                !
 ! A82   A(36,38,39)           118.4781         estimate D2E/DX2                !
 ! A83   A(36,38,44)           121.2893         estimate D2E/DX2                !
 ! A84   A(39,38,44)           120.2326         estimate D2E/DX2                !
 ! A85   A(1,40,42)            118.7565         estimate D2E/DX2                !
 ! A86   A(1,40,44)            118.7538         estimate D2E/DX2                !
 ! A87   A(42,40,44)           122.4896         estimate D2E/DX2                !
 ! A88   A(20,41,42)           121.2428         estimate D2E/DX2                !
 ! A89   A(20,41,46)           118.7499         estimate D2E/DX2                !
 ! A90   A(42,41,46)           120.0074         estimate D2E/DX2                !
 ! A91   A(40,42,41)           121.3876         estimate D2E/DX2                !
 ! A92   A(40,42,43)           118.8239         estimate D2E/DX2                !
 ! A93   A(41,42,43)           119.7885         estimate D2E/DX2                !
 ! A94   A(38,44,40)           121.2893         estimate D2E/DX2                !
 ! A95   A(38,44,45)           120.2326         estimate D2E/DX2                !
 ! A96   A(40,44,45)           118.4781         estimate D2E/DX2                !
 ! D1    D(6,1,2,3)              0.0            estimate D2E/DX2                !
 ! D2    D(6,1,2,20)           180.0            estimate D2E/DX2                !
 ! D3    D(40,1,2,3)           180.0            estimate D2E/DX2                !
 ! D4    D(40,1,2,20)            0.0            estimate D2E/DX2                !
 ! D5    D(2,1,6,5)              0.0            estimate D2E/DX2                !
 ! D6    D(2,1,6,36)           180.0            estimate D2E/DX2                !
 ! D7    D(40,1,6,5)           180.0            estimate D2E/DX2                !
 ! D8    D(40,1,6,36)            0.0            estimate D2E/DX2                !
 ! D9    D(2,1,40,42)            0.0            estimate D2E/DX2                !
 ! D10   D(2,1,40,44)          180.0            estimate D2E/DX2                !
 ! D11   D(6,1,40,42)          180.0            estimate D2E/DX2                !
 ! D12   D(6,1,40,44)            0.0            estimate D2E/DX2                !
 ! D13   D(1,2,3,4)              0.0            estimate D2E/DX2                !
 ! D14   D(1,2,3,7)            180.0            estimate D2E/DX2                !
 ! D15   D(20,2,3,4)           180.0            estimate D2E/DX2                !
 ! D16   D(20,2,3,7)             0.0            estimate D2E/DX2                !
 ! D17   D(1,2,20,21)          180.0            estimate D2E/DX2                !
 ! D18   D(1,2,20,41)            0.0            estimate D2E/DX2                !
 ! D19   D(3,2,20,21)            0.0            estimate D2E/DX2                !
 ! D20   D(3,2,20,41)          180.0            estimate D2E/DX2                !
 ! D21   D(2,3,4,5)              0.0            estimate D2E/DX2                !
 ! D22   D(2,3,4,8)            180.0            estimate D2E/DX2                !
 ! D23   D(7,3,4,5)            180.0            estimate D2E/DX2                !
 ! D24   D(7,3,4,8)              0.0            estimate D2E/DX2                !
 ! D25   D(2,3,7,10)           180.0            estimate D2E/DX2                !
 ! D26   D(2,3,7,22)             0.0            estimate D2E/DX2                !
 ! D27   D(4,3,7,10)             0.0            estimate D2E/DX2                !
 ! D28   D(4,3,7,22)           180.0            estimate D2E/DX2                !
 ! D29   D(3,4,5,6)              0.0            estimate D2E/DX2                !
 ! D30   D(3,4,5,16)           180.0            estimate D2E/DX2                !
 ! D31   D(8,4,5,6)            180.0            estimate D2E/DX2                !
 ! D32   D(8,4,5,16)             0.0            estimate D2E/DX2                !
 ! D33   D(3,4,8,9)              0.0            estimate D2E/DX2                !
 ! D34   D(3,4,8,14)           180.0            estimate D2E/DX2                !
 ! D35   D(5,4,8,9)            180.0            estimate D2E/DX2                !
 ! D36   D(5,4,8,14)             0.0            estimate D2E/DX2                !
 ! D37   D(4,5,6,1)              0.0            estimate D2E/DX2                !
 ! D38   D(4,5,6,36)           180.0            estimate D2E/DX2                !
 ! D39   D(16,5,6,1)           180.0            estimate D2E/DX2                !
 ! D40   D(16,5,6,36)            0.0            estimate D2E/DX2                !
 ! D41   D(4,5,16,15)            0.0            estimate D2E/DX2                !
 ! D42   D(4,5,16,33)          180.0            estimate D2E/DX2                !
 ! D43   D(6,5,16,15)          180.0            estimate D2E/DX2                !
 ! D44   D(6,5,16,33)            0.0            estimate D2E/DX2                !
 ! D45   D(1,6,36,34)          180.0            estimate D2E/DX2                !
 ! D46   D(1,6,36,38)            0.0            estimate D2E/DX2                !
 ! D47   D(5,6,36,34)            0.0            estimate D2E/DX2                !
 ! D48   D(5,6,36,38)          180.0            estimate D2E/DX2                !
 ! D49   D(3,7,10,9)             0.0            estimate D2E/DX2                !
 ! D50   D(3,7,10,26)          180.0            estimate D2E/DX2                !
 ! D51   D(22,7,10,9)          180.0            estimate D2E/DX2                !
 ! D52   D(22,7,10,26)           0.0            estimate D2E/DX2                !
 ! D53   D(3,7,22,21)            0.0            estimate D2E/DX2                !
 ! D54   D(3,7,22,24)          180.0            estimate D2E/DX2                !
 ! D55   D(10,7,22,21)         180.0            estimate D2E/DX2                !
 ! D56   D(10,7,22,24)           0.0            estimate D2E/DX2                !
 ! D57   D(4,8,9,10)             0.0            estimate D2E/DX2                !
 ! D58   D(4,8,9,11)           180.0            estimate D2E/DX2                !
 ! D59   D(14,8,9,10)          180.0            estimate D2E/DX2                !
 ! D60   D(14,8,9,11)            0.0            estimate D2E/DX2                !
 ! D61   D(4,8,14,13)          180.0            estimate D2E/DX2                !
 ! D62   D(4,8,14,15)            0.0            estimate D2E/DX2                !
 ! D63   D(9,8,14,13)            0.0            estimate D2E/DX2                !
 ! D64   D(9,8,14,15)          180.0            estimate D2E/DX2                !
 ! D65   D(8,9,10,7)             0.0            estimate D2E/DX2                !
 ! D66   D(8,9,10,26)          180.0            estimate D2E/DX2                !
 ! D67   D(11,9,10,7)          180.0            estimate D2E/DX2                !
 ! D68   D(11,9,10,26)           0.0            estimate D2E/DX2                !
 ! D69   D(8,9,11,12)            0.0            estimate D2E/DX2                !
 ! D70   D(8,9,11,29)          180.0            estimate D2E/DX2                !
 ! D71   D(10,9,11,12)         180.0            estimate D2E/DX2                !
 ! D72   D(10,9,11,29)           0.0            estimate D2E/DX2                !
 ! D73   D(7,10,26,25)           0.0            estimate D2E/DX2                !
 ! D74   D(7,10,26,31)         180.0            estimate D2E/DX2                !
 ! D75   D(9,10,26,25)         180.0            estimate D2E/DX2                !
 ! D76   D(9,10,26,31)           0.0            estimate D2E/DX2                !
 ! D77   D(9,11,12,13)           0.0            estimate D2E/DX2                !
 ! D78   D(9,11,12,18)         180.0            estimate D2E/DX2                !
 ! D79   D(29,11,12,13)        180.0            estimate D2E/DX2                !
 ! D80   D(29,11,12,18)          0.0            estimate D2E/DX2                !
 ! D81   D(9,11,29,30)         180.0            estimate D2E/DX2                !
 ! D82   D(9,11,29,31)           0.0            estimate D2E/DX2                !
 ! D83   D(12,11,29,30)          0.0            estimate D2E/DX2                !
 ! D84   D(12,11,29,31)        180.0            estimate D2E/DX2                !
 ! D85   D(11,12,13,14)          0.0            estimate D2E/DX2                !
 ! D86   D(11,12,13,19)        180.0            estimate D2E/DX2                !
 ! D87   D(18,12,13,14)        180.0            estimate D2E/DX2                !
 ! D88   D(18,12,13,19)          0.0            estimate D2E/DX2                !
 ! D89   D(12,13,14,8)           0.0            estimate D2E/DX2                !
 ! D90   D(12,13,14,15)        180.0            estimate D2E/DX2                !
 ! D91   D(19,13,14,8)         180.0            estimate D2E/DX2                !
 ! D92   D(19,13,14,15)          0.0            estimate D2E/DX2                !
 ! D93   D(8,14,15,16)           0.0            estimate D2E/DX2                !
 ! D94   D(8,14,15,17)         180.0            estimate D2E/DX2                !
 ! D95   D(13,14,15,16)        180.0            estimate D2E/DX2                !
 ! D96   D(13,14,15,17)          0.0            estimate D2E/DX2                !
 ! D97   D(14,15,16,5)           0.0            estimate D2E/DX2                !
 ! D98   D(14,15,16,33)        180.0            estimate D2E/DX2                !
 ! D99   D(17,15,16,5)         180.0            estimate D2E/DX2                !
 ! D100  D(17,15,16,33)          0.0            estimate D2E/DX2                !
 ! D101  D(5,16,33,34)           0.0            estimate D2E/DX2                !
 ! D102  D(5,16,33,37)         180.0            estimate D2E/DX2                !
 ! D103  D(15,16,33,34)        180.0            estimate D2E/DX2                !
 ! D104  D(15,16,33,37)          0.0            estimate D2E/DX2                !
 ! D105  D(2,20,21,22)           0.0            estimate D2E/DX2                !
 ! D106  D(2,20,21,23)         180.0            estimate D2E/DX2                !
 ! D107  D(41,20,21,22)        180.0            estimate D2E/DX2                !
 ! D108  D(41,20,21,23)          0.0            estimate D2E/DX2                !
 ! D109  D(2,20,41,42)           0.0            estimate D2E/DX2                !
 ! D110  D(2,20,41,46)         180.0            estimate D2E/DX2                !
 ! D111  D(21,20,41,42)        180.0            estimate D2E/DX2                !
 ! D112  D(21,20,41,46)          0.0            estimate D2E/DX2                !
 ! D113  D(20,21,22,7)           0.0            estimate D2E/DX2                !
 ! D114  D(20,21,22,24)        180.0            estimate D2E/DX2                !
 ! D115  D(23,21,22,7)         180.0            estimate D2E/DX2                !
 ! D116  D(23,21,22,24)          0.0            estimate D2E/DX2                !
 ! D117  D(7,22,24,25)           0.0            estimate D2E/DX2                !
 ! D118  D(7,22,24,27)         180.0            estimate D2E/DX2                !
 ! D119  D(21,22,24,25)        180.0            estimate D2E/DX2                !
 ! D120  D(21,22,24,27)          0.0            estimate D2E/DX2                !
 ! D121  D(22,24,25,26)          0.0            estimate D2E/DX2                !
 ! D122  D(22,24,25,28)        180.0            estimate D2E/DX2                !
 ! D123  D(27,24,25,26)        180.0            estimate D2E/DX2                !
 ! D124  D(27,24,25,28)          0.0            estimate D2E/DX2                !
 ! D125  D(24,25,26,10)          0.0            estimate D2E/DX2                !
 ! D126  D(24,25,26,31)        180.0            estimate D2E/DX2                !
 ! D127  D(28,25,26,10)        180.0            estimate D2E/DX2                !
 ! D128  D(28,25,26,31)          0.0            estimate D2E/DX2                !
 ! D129  D(10,26,31,29)          0.0            estimate D2E/DX2                !
 ! D130  D(10,26,31,32)        180.0            estimate D2E/DX2                !
 ! D131  D(25,26,31,29)        180.0            estimate D2E/DX2                !
 ! D132  D(25,26,31,32)          0.0            estimate D2E/DX2                !
 ! D133  D(11,29,31,26)          0.0            estimate D2E/DX2                !
 ! D134  D(11,29,31,32)        180.0            estimate D2E/DX2                !
 ! D135  D(30,29,31,26)        180.0            estimate D2E/DX2                !
 ! D136  D(30,29,31,32)          0.0            estimate D2E/DX2                !
 ! D137  D(16,33,34,35)        180.0            estimate D2E/DX2                !
 ! D138  D(16,33,34,36)          0.0            estimate D2E/DX2                !
 ! D139  D(37,33,34,35)          0.0            estimate D2E/DX2                !
 ! D140  D(37,33,34,36)        180.0            estimate D2E/DX2                !
 ! D141  D(33,34,36,6)           0.0            estimate D2E/DX2                !
 ! D142  D(33,34,36,38)        180.0            estimate D2E/DX2                !
 ! D143  D(35,34,36,6)         180.0            estimate D2E/DX2                !
 ! D144  D(35,34,36,38)          0.0            estimate D2E/DX2                !
 ! D145  D(6,36,38,39)         180.0            estimate D2E/DX2                !
 ! D146  D(6,36,38,44)           0.0            estimate D2E/DX2                !
 ! D147  D(34,36,38,39)          0.0            estimate D2E/DX2                !
 ! D148  D(34,36,38,44)        180.0            estimate D2E/DX2                !
 ! D149  D(36,38,44,40)          0.0            estimate D2E/DX2                !
 ! D150  D(36,38,44,45)        180.0            estimate D2E/DX2                !
 ! D151  D(39,38,44,40)        180.0            estimate D2E/DX2                !
 ! D152  D(39,38,44,45)          0.0            estimate D2E/DX2                !
 ! D153  D(1,40,42,41)           0.0            estimate D2E/DX2                !
 ! D154  D(1,40,42,43)         180.0            estimate D2E/DX2                !
 ! D155  D(44,40,42,41)        180.0            estimate D2E/DX2                !
 ! D156  D(44,40,42,43)          0.0            estimate D2E/DX2                !
 ! D157  D(1,40,44,38)           0.0            estimate D2E/DX2                !
 ! D158  D(1,40,44,45)         180.0            estimate D2E/DX2                !
 ! D159  D(42,40,44,38)        180.0            estimate D2E/DX2                !
 ! D160  D(42,40,44,45)          0.0            estimate D2E/DX2                !
 ! D161  D(20,41,42,40)          0.0            estimate D2E/DX2                !
 ! D162  D(20,41,42,43)        180.0            estimate D2E/DX2                !
 ! D163  D(46,41,42,40)        180.0            estimate D2E/DX2                !
 ! D164  D(46,41,42,43)          0.0            estimate D2E/DX2                !
 --------------------------------------------------------------------------------
 Trust Radius=3.00D-01 FncErr=1.00D-07 GrdErr=1.00D-06 EigMax=2.50D+02 EigMin=1.00D-04
 Number of steps in this run=    276 maximum allowed number of steps=    276.
 GradGradGradGradGradGradGradGradGradGradGradGradGradGradGradGradGradGrad

                          Input orientation:                          
 ---------------------------------------------------------------------
 Center     Atomic      Atomic             Coordinates (Angstroms)
 Number     Number       Type             X           Y           Z
 ---------------------------------------------------------------------
      1          6           0        0.000000    2.461230    0.711429
      2          6           0        0.000000    1.235227    1.418598
      3          6           0        0.000000    0.000000    0.707224
      4          6           0        0.000000    0.000000   -0.707224
      5          6           0        0.000000    1.235227   -1.418598
      6          6           0        0.000000    2.461230   -0.711429
      7          6           0        0.000000   -1.235227    1.418598
      8          6           0        0.000000   -1.235227   -1.418598
      9          6           0        0.000000   -2.461230   -0.711429
     10          6           0        0.000000   -2.461230    0.711429
     11          6           0        0.000000   -3.698191   -1.424347
     12          6           0        0.000000   -3.668663   -2.833635
     13          6           0        0.000000   -2.478221   -3.526136
     14          6           0        0.000000   -1.229746   -2.846296
     15          6           0        0.000000    0.000000   -3.525615
     16          6           0        0.000000    1.229746   -2.846296
     17          1           0        0.000000    0.000000   -4.608492
     18          1           0        0.000000   -4.605723   -3.375175
     19          1           0        0.000000   -2.481619   -4.608021
     20          6           0        0.000000    1.229746    2.846296
     21          6           0        0.000000    0.000000    3.525615
     22          6           0        0.000000   -1.229746    2.846296
     23          1           0        0.000000    0.000000    4.608492
     24          6           0        0.000000   -2.478221    3.526136
     25          6           0        0.000000   -3.668663    2.833635
     26          6           0        0.000000   -3.698191    1.424347
     27          1           0        0.000000   -2.481619    4.608021
     28          1           0        0.000000   -4.605723    3.375175
     29          6           0        0.000000   -4.921423   -0.680922
     30          1           0        0.000000   -5.856351   -1.225775
     31          6           0        0.000000   -4.921423    0.680922
     32          1           0        0.000000   -5.856351    1.225775
     33          6           0        0.000000    2.478221   -3.526136
     34          6           0        0.000000    3.668663   -2.833635
     35          1           0        0.000000    4.605723   -3.375175
     36          6           0        0.000000    3.698191   -1.424347
     37          1           0        0.000000    2.481619   -4.608021
     38          6           0        0.000000    4.921423   -0.680922
     39          1           0        0.000000    5.856351   -1.225775
     40          6           0        0.000000    3.698191    1.424347
     41          6           0        0.000000    2.478221    3.526136
     42          6           0        0.000000    3.668663    2.833635
     43          1           0        0.000000    4.605723    3.375175
     44          6           0        0.000000    4.921423    0.680922
     45          1           0        0.000000    5.856351    1.225775
     46          1           0        0.000000    2.481619    4.608021
 ---------------------------------------------------------------------
                    Distance matrix (angstroms):
                    1          2          3          4          5
     1  C    0.000000
     2  C    1.415334   0.000000
     3  C    2.461234   1.425426   0.000000
     4  C    2.840815   2.458639   1.414448   0.000000
     5  C    2.457661   2.837196   2.458639   1.425426   0.000000
     6  C    1.422858   2.457661   2.840815   2.461234   1.415334
     7  C    3.763493   2.470454   1.425426   2.458639   3.762024
     8  C    4.266241   3.762024   2.458639   1.425426   2.470454
     9  C    5.123977   4.266241   2.840815   2.461234   3.763493
    10  C    4.922460   3.763493   2.461234   2.840815   4.266241
    11  C    6.519203   5.693940   4.268514   3.767079   4.933421
    12  C    7.081177   6.490734   5.098703   4.240367   5.103966
    13  C    6.508082   6.183857   4.905397   3.753378   4.269826
    14  C    5.126472   4.925994   3.760290   2.467368   2.848581
    15  C    4.900020   5.096178   4.232839   2.818391   2.442398
    16  C    3.764832   4.264898   3.760290   2.467368   1.427709
    17  H    5.861673   6.152365   5.315716   3.901268   3.420703
    18  H    8.163465   7.556253   6.154565   5.322654   6.159942
    19  H    7.261426   7.080613   5.866026   4.623273   4.897690
    20  C    2.464591   1.427709   2.467368   3.760290   4.264898
    21  C    3.738622   2.442398   2.818391   4.232839   5.096178
    22  C    4.263914   2.848581   2.467368   3.760290   4.925994
    23  H    4.609203   3.420703   3.901268   5.315716   6.152365
    24  C    5.685134   4.269826   3.753378   4.905397   6.183857
    25  C    6.486860   5.103966   4.240367   5.098703   6.490734
    26  C    6.200542   4.933421   3.767079   4.268514   5.693940
    27  H    6.294060   4.897690   4.623273   5.866026   7.080613
    28  H    7.552309   6.159942   5.322654   6.154565   7.556253
    29  C    7.512803   6.504792   5.113448   4.921493   6.200686
    30  H    8.540194   7.568566   6.167117   5.879264   7.094199
    31  C    7.382716   6.200686   4.921493   5.113448   6.504792
    32  H    8.333469   7.094199   5.879264   6.167117   7.568566
    33  C    4.237599   5.098571   4.905397   3.753378   2.446784
    34  C    3.745046   4.899295   5.098703   4.240367   2.814949
    35  H    4.615104   5.860077   6.154565   5.322654   3.897235
    36  C    2.468119   3.761453   4.268514   3.767079   2.462971
    37  H    5.319489   6.154155   5.866026   4.623273   3.424312
    38  C    2.826869   4.242172   5.113448   4.921493   3.759283
    39  H    3.908914   5.324237   6.167117   5.879264   4.625145
    40  C    1.427699   2.462971   3.767079   4.268514   3.761453
    41  C    2.814758   2.446784   3.753378   4.905397   5.098571
    42  C    2.441650   2.814949   4.240367   5.098703   4.899295
    43  H    3.419707   3.897235   5.322654   6.154565   5.860077
    44  C    2.460382   3.759283   4.921493   5.113448   4.242172
    45  H    3.433861   4.625145   5.879264   6.167117   5.324237
    46  H    3.896645   3.424312   4.623273   5.866026   6.154155
                    6          7          8          9         10
     6  C    0.000000
     7  C    4.266241   0.000000
     8  C    3.763493   2.837196   0.000000
     9  C    4.922460   2.457661   1.415334   0.000000
    10  C    5.123977   1.415334   2.457661   1.422858   0.000000
    11  C    6.200542   3.761453   2.462971   1.427699   2.468119
    12  C    6.486860   4.899295   2.814949   2.441650   3.745046
    13  C    5.685134   5.098571   2.446784   2.814758   4.237599
    14  C    4.263914   4.264898   1.427709   2.464591   3.764832
    15  C    3.738622   5.096178   2.442398   3.738622   4.900020
    16  C    2.464591   4.925994   2.848581   4.263914   5.126472
    17  H    4.609203   6.152365   3.420703   4.609203   5.861673
    18  H    7.552309   5.860077   3.897235   3.419707   4.615104
    19  H    6.294060   6.154155   3.424312   3.896645   5.319489
    20  C    3.764832   2.848581   4.925994   5.126472   4.263914
    21  C    4.900020   2.442398   5.096178   4.900020   3.738622
    22  C    5.126472   1.427709   4.264898   3.764832   2.464591
    23  H    5.861673   3.420703   6.152365   5.861673   4.609203
    24  C    6.508082   2.446784   5.098571   4.237599   2.814758
    25  C    7.081177   2.814949   4.899295   3.745046   2.441650
    26  C    6.519203   2.462971   3.761453   2.468119   1.427699
    27  H    7.261426   3.424312   6.154155   5.319489   3.896645
    28  H    8.163465   3.897235   5.860077   4.615104   3.419707
    29  C    7.382716   4.242172   3.759283   2.460382   2.826869
    30  H    8.333469   5.324237   4.625145   3.433861   3.908914
    31  C    7.512803   3.759283   4.242172   2.826869   2.460382
    32  H    8.540194   4.625145   5.324237   3.908914   3.433861
    33  C    2.814758   6.183857   4.269826   5.685134   6.508082
    34  C    2.441650   6.490734   5.103966   6.486860   7.081177
    35  H    3.419707   7.556253   6.159942   7.552309   8.163465
    36  C    1.427699   5.693940   4.933421   6.200542   6.519203
    37  H    3.896645   7.080613   4.897690   6.294060   7.261426
    38  C    2.460382   6.504792   6.200686   7.382716   7.512803
    39  H    3.433861   7.568566   7.094199   8.333469   8.540194
    40  C    2.468119   4.933421   5.693940   6.519203   6.200542
    41  C    4.237599   4.269826   6.183857   6.508082   5.685134
    42  C    3.745046   5.103966   6.490734   7.081177   6.486860
    43  H    4.615104   6.159942   7.556253   8.163465   7.552309
    44  C    2.826869   6.200686   6.504792   7.512803   7.382716
    45  H    3.908914   7.094199   7.568566   8.540194   8.333469
    46  H    5.319489   4.897690   7.080613   7.261426   6.294060
                   11         12         13         14         15
    11  C    0.000000
    12  C    1.409597   0.000000
    13  C    2.430194   1.377211   0.000000
    14  C    2.848712   2.438950   1.421574   0.000000
    15  C    4.253463   3.733353   2.478221   1.404902   0.000000
    16  C    5.128986   4.898425   3.769775   2.459492   1.404902
    17  H    4.880102   4.075439   2.704270   2.148862   1.082877
    18  H    2.151591   1.082288   2.132851   3.417153   4.608179
    19  H    3.408200   2.134835   1.081890   2.161217   2.707404
    20  C    6.520963   7.500402   7.372714   6.201186   6.489493
    21  C    6.178895   7.341604   7.474542   6.489493   7.051230
    22  C    4.932708   6.181418   6.493580   5.692592   6.489493
    23  H    7.076140   8.297249   8.503749   7.555537   8.134107
    24  C    5.098589   6.470227   7.052272   6.493580   7.474542
    25  C    4.258084   5.667270   6.470227   6.181418   7.341604
    26  C    2.848694   4.258084   5.098589   4.932708   6.178895
    27  H    6.153821   7.535736   8.134158   7.558705   8.503791
    28  H    4.884570   6.279124   7.221797   7.078412   8.296601
    29  C    1.431425   2.490699   3.750264   4.279874   5.684425
    30  H    2.167276   2.714994   4.086982   4.902200   6.291749
    31  C    2.434842   3.731155   4.865036   5.105854   6.474207
    32  H    3.417719   4.611376   5.830302   6.163379   7.541389
    33  C    6.524230   6.185769   4.956442   3.769775   2.478221
    34  C    7.500442   7.337326   6.185769   4.898425   3.733353
    35  H    8.529989   8.292088   7.085552   5.859387   4.608179
    36  C    7.396382   7.500442   6.524230   5.128986   4.253463
    37  H    6.951678   6.401126   5.076464   4.108273   2.707404
    38  C    8.651614   8.855719   7.927798   6.521175   5.684425
    39  H    9.556605   9.659767   8.646199   7.269034   6.291749
    40  C    7.926003   8.508875   7.915513   6.520963   6.178895
    41  C    7.915513   8.844822   8.619795   7.372714   7.474542
    42  C    8.508875   9.271154   8.844822   7.500402   7.341604
    43  H    9.591163  10.344795   9.889912   8.529912   8.296601
    44  C    8.872987   9.281255   8.511996   7.090708   6.474207
    45  H    9.915262  10.353970   9.594048   8.172792   7.541389
    46  H    8.635943   9.654233   9.527042   8.327129   8.503791
                   16         17         18         19         20
    16  C    0.000000
    17  H    2.148862   0.000000
    18  H    5.859387   4.767993   0.000000
    19  H    4.108273   2.481619   2.455957   0.000000
    20  C    5.692592   7.555537   8.529912   8.327129   0.000000
    21  C    6.489493   8.134107   8.296601   8.503791   1.404902
    22  C    6.201186   7.555537   7.078412   7.558705   2.459492
    23  H    7.555537   9.216984   9.216920   9.544765   2.148862
    24  C    7.372714   8.503749   7.221797   8.134158   3.769775
    25  C    7.500402   8.297249   6.279124   7.535736   4.898425
    26  C    6.520963   7.076140   4.884570   6.153821   5.128986
    27  H    8.327129   9.544765   8.260946   9.216042   4.108273
    28  H    8.529912   9.216920   6.750350   8.260946   5.859387
    29  C    6.521175   6.296524   2.712686   4.623283   7.090708
    30  H    7.269034   6.763107   2.486763   4.777908   8.172792
    31  C    7.090708   7.224839   4.068364   5.824565   6.521175
    32  H    8.172792   8.266530   4.767894   6.739584   7.269034
    33  C    1.421574   2.704270   7.085552   5.076464   6.493580
    34  C    2.438950   4.075439   8.292088   6.401126   6.181418
    35  H    3.417153   4.767993   9.211446   7.193770   7.078412
    36  C    2.848712   4.880102   8.529989   6.951678   4.932708
    37  H    2.161217   2.481619   7.193770   4.963238   7.558705
    38  C    4.279874   6.296524   9.900783   8.380163   5.105854
    39  H    4.902200   6.763107  10.680586   8.997852   6.163379
    40  C    4.932708   7.076140   9.591163   8.635943   2.848712
    41  C    6.493580   8.503749   9.889912   9.527042   1.421574
    42  C    6.181418   8.297249  10.344795   9.654233   2.438950
    43  H    7.078412   9.216920  11.420068  10.675291   3.417153
    44  C    5.105854   7.224839  10.354633   9.098239   4.279874
    45  H    6.163379   8.266530  11.429074  10.176194   4.902200
    46  H    7.558705   9.544765  10.675291  10.467529   2.161217
                   21         22         23         24         25
    21  C    0.000000
    22  C    1.404902   0.000000
    23  H    1.082877   2.148862   0.000000
    24  C    2.478221   1.421574   2.704270   0.000000
    25  C    3.733353   2.438950   4.075439   1.377211   0.000000
    26  C    4.253463   2.848712   4.880102   2.430194   1.409597
    27  H    2.707404   2.161217   2.481619   1.081890   2.134835
    28  H    4.608179   3.417153   4.767993   2.132851   1.082288
    29  C    6.474207   5.105854   7.224839   4.865036   3.731155
    30  H    7.541389   6.163379   8.266530   5.830302   4.611376
    31  C    5.684425   4.279874   6.296524   3.750264   2.490699
    32  H    6.291749   4.902200   6.763107   4.086982   2.714994
    33  C    7.474542   7.372714   8.503749   8.619795   8.844822
    34  C    7.341604   7.500402   8.297249   8.844822   9.271154
    35  H    8.296601   8.529912   9.216920   9.889912  10.344795
    36  C    6.178895   6.520963   7.076140   7.915513   8.508875
    37  H    8.503791   8.327129   9.544765   9.527042   9.654233
    38  C    6.474207   7.090708   7.224839   8.511996   9.281255
    39  H    7.541389   8.172792   8.266530   9.594048  10.353970
    40  C    4.253463   5.128986   4.880102   6.524230   7.500442
    41  C    2.478221   3.769775   2.704270   4.956442   6.185769
    42  C    3.733353   4.898425   4.075439   6.185769   7.337326
    43  H    4.608179   5.859387   4.767993   7.085552   8.292088
    44  C    5.684425   6.521175   6.296524   7.927798   8.855719
    45  H    6.291749   7.269034   6.763107   8.646199   9.659767
    46  H    2.707404   4.108273   2.481619   5.076464   6.401126
                   26         27         28         29         30
    26  C    0.000000
    27  H    3.408200   0.000000
    28  H    2.151591   2.455957   0.000000
    29  C    2.434842   5.824565   4.068364   0.000000
    30  H    3.417719   6.739584   4.767894   1.082107   0.000000
    31  C    1.431425   4.623283   2.712686   1.361844   2.123578
    32  H    2.167276   4.777908   2.486763   2.123578   2.451550
    33  C    7.915513   9.527042   9.889912   7.927798   8.646199
    34  C    8.508875   9.654233  10.344795   8.855719   9.659767
    35  H    9.591163  10.675291  11.420068   9.900783  10.680586
    36  C    7.926003   8.635943   9.591163   8.651614   9.556605
    37  H    8.635943  10.467529  10.675291   8.380163   8.997852
    38  C    8.872987   9.098239  10.354633   9.842846  10.791537
    39  H    9.915262  10.176194  11.429074  10.791537  11.712702
    40  C    7.396382   6.951678   8.529989   8.872987   9.915262
    41  C    6.524230   5.076464   7.085552   8.511996   9.594048
    42  C    7.500442   6.401126   8.292088   9.281255  10.353970
    43  H    8.529989   7.193770   9.211446  10.354633  11.429074
    44  C    8.651614   8.380163   9.900783   9.936611  10.945132
    45  H    9.556605   8.997852  10.680586  10.945132  11.966515
    46  H    6.951678   4.963238   7.193770   9.098239  10.176194
                   31         32         33         34         35
    31  C    0.000000
    32  H    1.082107   0.000000
    33  C    8.511996   9.594048   0.000000
    34  C    9.281255  10.353970   1.377211   0.000000
    35  H   10.354633  11.429074   2.132851   1.082288   0.000000
    36  C    8.872987   9.915262   2.430194   1.409597   2.151591
    37  H    9.098239  10.176194   1.081890   2.134835   2.455957
    38  C    9.936611  10.945132   3.750264   2.490699   2.712686
    39  H   10.945132  11.966515   4.086982   2.714994   2.486763
    40  C    8.651614   9.556605   5.098589   4.258084   4.884570
    41  C    7.927798   8.646199   7.052272   6.470227   7.221797
    42  C    8.855719   9.659767   6.470227   5.667270   6.279124
    43  H    9.900783  10.680586   7.221797   6.279124   6.750350
    44  C    9.842846  10.791537   4.865036   3.731155   4.068364
    45  H   10.791537  11.712702   5.830302   4.611376   4.767894
    46  H    8.380163   8.997852   8.134158   7.535736   8.260946
                   36         37         38         39         40
    36  C    0.000000
    37  H    3.408200   0.000000
    38  C    1.431425   4.623283   0.000000
    39  H    2.167276   4.777908   1.082107   0.000000
    40  C    2.848694   6.153821   2.434842   3.417719   0.000000
    41  C    5.098589   8.134158   4.865036   5.830302   2.430194
    42  C    4.258084   7.535736   3.731155   4.611376   1.409597
    43  H    4.884570   8.260946   4.068364   4.767894   2.151591
    44  C    2.434842   5.824565   1.361844   2.123578   1.431425
    45  H    3.417719   6.739584   2.123578   2.451550   2.167276
    46  H    6.153821   9.216042   5.824565   6.739584   3.408200
                   41         42         43         44         45
    41  C    0.000000
    42  C    1.377211   0.000000
    43  H    2.132851   1.082288   0.000000
    44  C    3.750264   2.490699   2.712686   0.000000
    45  H    4.086982   2.714994   2.486763   1.082107   0.000000
    46  H    1.081890   2.134835   2.455957   4.623283   4.777908
                   46
    46  H    0.000000
 Stoichiometry    C32H14
 Framework group  D2H[C2"(HCC.CCH),SG(C28H12)]
 Deg. of freedom    23
 Full point group                 D2H     NOp   8
 Largest Abelian subgroup         D2H     NOp   8
 Largest concise Abelian subgroup D2      NOp   4
                         Standard orientation:                         
 ---------------------------------------------------------------------
 Center     Atomic      Atomic             Coordinates (Angstroms)
 Number     Number       Type             X           Y           Z
 ---------------------------------------------------------------------
      1          6           0        0.000000    2.461230    0.711429
      2          6           0        0.000000    1.235227    1.418598
      3          6           0        0.000000    0.000000    0.707224
      4          6           0        0.000000    0.000000   -0.707224
      5          6           0        0.000000    1.235227   -1.418598
      6          6           0        0.000000    2.461230   -0.711429
      7          6           0       -0.000000   -1.235227    1.418598
      8          6           0       -0.000000   -1.235227   -1.418598
      9          6           0       -0.000000   -2.461230   -0.711429
     10          6           0       -0.000000   -2.461230    0.711429
     11          6           0        0.000000   -3.698191   -1.424347
     12          6           0        0.000000   -3.668663   -2.833635
     13          6           0        0.000000   -2.478221   -3.526136
     14          6           0        0.000000   -1.229746   -2.846296
     15          6           0        0.000000    0.000000   -3.525615
     16          6           0        0.000000    1.229746   -2.846296
     17          1           0        0.000000    0.000000   -4.608492
     18          1           0        0.000000   -4.605723   -3.375175
     19          1           0        0.000000   -2.481619   -4.608021
     20          6           0        0.000000    1.229746    2.846296
     21          6           0       -0.000000    0.000000    3.525615
     22          6           0       -0.000000   -1.229746    2.846296
     23          1           0       -0.000000    0.000000    4.608492
     24          6           0       -0.000000   -2.478221    3.526136
     25          6           0       -0.000000   -3.668663    2.833635
     26          6           0       -0.000000   -3.698191    1.424347
     27          1           0       -0.000000   -2.481619    4.608021
     28          1           0       -0.000000   -4.605723    3.375175
     29          6           0        0.000000   -4.921423   -0.680922
     30          1           0        0.000000   -5.856351   -1.225775
     31          6           0       -0.000000   -4.921423    0.680922
     32          1           0       -0.000000   -5.856351    1.225775
     33          6           0        0.000000    2.478221   -3.526136
     34          6           0        0.000000    3.668663   -2.833635
     35          1           0        0.000000    4.605723   -3.375175
     36          6           0        0.000000    3.698191   -1.424347
     37          1           0        0.000000    2.481619   -4.608021
     38          6           0        0.000000    4.921423   -0.680922
     39          1           0        0.000000    5.856351   -1.225775
     40          6           0        0.000000    3.698191    1.424347
     41          6           0        0.000000    2.478221    3.526136
     42          6           0        0.000000    3.668663    2.833635
     43          1           0        0.000000    4.605723    3.375175
     44          6           0        0.000000    4.921423    0.680922
     45          1           0        0.000000    5.856351    1.225775
     46          1           0        0.000000    2.481619    4.608021
 ---------------------------------------------------------------------
 Rotational constants (GHZ):           0.2403892           0.1466956           0.0911016
 Standard basis: 6-311++G(2d,2p) (5D, 7F)
 There are   207 symmetry adapted cartesian basis functions of AG  symmetry.
 There are    66 symmetry adapted cartesian basis functions of B1G symmetry.
 There are    76 symmetry adapted cartesian basis functions of B2G symmetry.
 There are   185 symmetry adapted cartesian basis functions of B3G symmetry.
 There are    66 symmetry adapted cartesian basis functions of AU  symmetry.
 There are   207 symmetry adapted cartesian basis functions of B1U symmetry.
 There are   185 symmetry adapted cartesian basis functions of B2U symmetry.
 There are    76 symmetry adapted cartesian basis functions of B3U symmetry.
 There are   189 symmetry adapted basis functions of AG  symmetry.
 There are    66 symmetry adapted basis functions of B1G symmetry.
 There are    76 symmetry adapted basis functions of B2G symmetry.
 There are   171 symmetry adapted basis functions of B3G symmetry.
 There are    66 symmetry adapted basis functions of AU  symmetry.
 There are   189 symmetry adapted basis functions of B1U symmetry.
 There are   171 symmetry adapted basis functions of B2U symmetry.
 There are    76 symmetry adapted basis functions of B3U symmetry.
  1004 basis functions,  1512 primitive gaussians,  1068 cartesian basis functions
   103 alpha electrons      103 beta electrons
       nuclear repulsion energy      2858.7146802845 Hartrees.
 NAtoms=   46 NActive=   46 NUniq=   13 SFac= 4.00D+00 NAtFMM=   60 NAOKFM=F Big=F
 Integral buffers will be    131072 words long.
 Regular integral format.
 Two-electron integral symmetry is turned on.
 Nuclear repulsion after empirical dispersion term =     2858.5702351311 Hartrees.
 One-electron integrals computed using PRISM.
 NBasis=  1004 RedAO= T EigKep=  1.08D-06  NBF=   189    66    76   171    66   189   171    76
 NBsUse=   973 1.00D-06 EigRej=  9.17D-07 NBFU=   183    66    76   162    66   179   165    76
 ExpMin= 3.60D-02 ExpMax= 4.56D+03 ExpMxC= 6.82D+02 IAcc=3 IRadAn=         5 AccDes= 0.00D+00
 Harris functional with IExCor=  402 and IRadAn=       5 diagonalized for initial guess.
 HarFok:  IExCor=  402 AccDes= 0.00D+00 IRadAn=         5 IDoV= 1 UseB2=F ITyADJ=14
 ICtDFT=  3500011 ScaDFX=  1.000000  1.000000  1.000000  1.000000
 FoFCou: FMM=F IPFlag=           0 FMFlag=      100000 FMFlg1=           0
         NFxFlg=           0 DoJE=T BraDBF=F KetDBF=T FulRan=T
         wScrn=  0.000000 ICntrl=       500 IOpCl=  0 I1Cent=   200000004 NGrid=           0
         NMat0=    1 NMatS0=      1 NMatT0=    0 NMatD0=    1 NMtDS0=    0 NMtDT0=    0
 Petite list used in FoFCou.
 Initial guess orbital symmetries:
       Occupied  (B3G) (B1U) (AG) (B2U) (AG) (B2U) (B3G) (B1U)
                 (B1U) (AG) (B3G) (B2U) (B1U) (AG) (B3G) (B2U)
                 (B1U) (AG) (AG) (B2U) (AG) (B1U) (B3G) (B1U) (B2U)
                 (AG) (B3G) (B1U) (B2U) (B3G) (AG) (B1U) (AG) (B2U)
                 (B1U) (AG) (B3G) (AG) (B2U) (B1U) (B2U) (AG) (B3G)
                 (B1U) (AG) (B3G) (B2U) (B1U) (AG) (B2U) (B1U)
                 (B3G) (AG) (B2U) (B1U) (B3G) (AG) (B1U) (B2U)
                 (AG) (B3G) (B2U) (AG) (B1U) (B3G) (B2U) (B1U)
                 (AG) (B2U) (B3G) (AG) (B1U) (B2U) (AG) (B2U) (B3G)
                 (AG) (B3G) (B3U) (AG) (B1U) (B1G) (B2U) (B3G)
                 (B2G) (B1U) (B1U) (B2U) (B3U) (AU) (B3G) (AG)
                 (B3U) (B1G) (B2G) (B1G) (B2G) (B3U) (AU) (B3U)
                 (AU) (B1G) (B2G)
       Virtual   (B3U) (AU) (B1G) (B2G) (B1G) (B3U) (B2G) (AU)
                 (B3U) (AU) (B2G) (AG) (B2U) (B1U) (B1G) (B3G)
                 (B2G) (AG) (AG) (B2U) (B1U) (B2U) (AG) (B3G) (B3U)
                 (B1U) (B1U) (B3U) (B2U) (B1G) (B2G) (AG) (AG)
                 (AU) (B3G) (B2U) (B3U) (B3G) (B1U) (AG) (AU) (AG)
                 (B2U) (B1U) (B3U) (AG) (B2U) (B2G) (B3G) (B1U)
                 (B1G) (B2U) (AG) (B1G) (B1U) (B3G) (AG) (B1U)
                 (B2G) (B2U) (B2U) (AG) (B1U) (AU) (AG) (B3G) (B1U)
                 (B2U) (B3U) (B3G) (B2G) (AG) (B1U) (B2U) (B3G)
                 (B3U) (AU) (AG) (B1U) (B3G) (B2U) (B1U) (B3G)
                 (B1G) (B2G) (AG) (B2U) (AG) (B1U) (B3U) (B2U)
                 (AG) (B3G) (B2U) (B2G) (B1U) (B3G) (B1G) (AG)
                 (AU) (B2U) (B3U) (B1U) (AG) (B3G) (B1G) (AG) (B3G)
                 (B2U) (B2G) (B2U) (B1U) (AU) (B1U) (AG) (B2U)
                 (B2G) (B3G) (AG) (B1U) (B2U) (AG) (AG) (B1U) (B3G)
                 (B3U) (B2U) (B3G) (B1U) (B2U) (B3G) (AG) (AU)
                 (B1U) (B2G) (B3U) (B1U) (B3G) (B1G) (AG) (B1U)
                 (AG) (B2U) (B3G) (B1U) (B2U) (B1U) (AG) (B3G)
                 (B2U) (AG) (B3G) (B3G) (B3U) (B3G) (B2U) (B1U)
                 (AG) (B1G) (B2G) (B1U) (AU) (B3G) (AG) (B1U) (B2U)
                 (B1U) (B2U) (AG) (B3G) (B1U) (B2U) (AG) (B3G)
                 (B2U) (AG) (B3U) (B1U) (B1G) (B3U) (B2G) (AG)
                 (AU) (B3G) (B1G) (B1U) (B3U) (B2G) (B3U) (AG)
                 (AU) (B1G) (B2U) (B2U) (AG) (B1G) (B3U) (B2U)
                 (B2U) (B3G) (B1U) (B2G) (B3G) (AG) (B1U) (B3G)
                 (AG) (B2G) (B3G) (B1U) (B1U) (AG) (B2U) (B3U)
                 (B3G) (AG) (B2U) (AU) (B1U) (B1G) (AG) (B2U) (B3G)
                 (AG) (B1U) (B2U) (AU) (B2G) (B3U) (B1G) (AU) (B3U)
                 (B2G) (B2G) (B1G) (B3U) (B1G) (AG) (B2G) (AG)
                 (B3G) (AU) (B2U) (B1U) (B1G) (B1U) (B3U) (B3G)
                 (B1U) (B2U) (AG) (B2U) (B3U) (B1G) (AU) (B1U)
                 (AG) (B3U) (B3G) (B2G) (B3U) (AU) (AU) (B1U) (B3U)
                 (B2G) (B1G) (AG) (B3G) (B2G) (B2U) (B1U) (AG)
                 (B3G) (AG) (AU) (B1G) (B2U) (B1U) (B2G) (AU) (AG)
                 (B1U) (B1G) (B3G) (B2U) (B2G) (AG) (B2U) (B1U)
                 (B2U) (B3G) (B1U) (AG) (B3G) (B2U) (B3U) (AG)
                 (AU) (B1U) (B3G) (AG) (B3G) (B2U) (B1U) (B2U)
                 (AG) (B3G) (B1U) (B2U) (B3G) (AG) (B3G) (B1U)
                 (B1U) (B3U) (B1G) (B2G) (B3U) (B2U) (AG) (AU)
                 (B1G) (B3U) (B2G) (AG) (B3G) (B1U) (B2U) (B1G)
                 (B1U) (B3U) (B3G) (B2U) (AG) (B2G) (AU) (AG) (B2U)
                 (AU) (B2G) (B1U) (B2G) (B1G) (B3U) (B1G) (B3G)
                 (AG) (AU) (B3U) (B3G) (B2U) (AG) (B1U) (AU) (B2U)
                 (AG) (B2G) (B3G) (B1G) (AG) (B2U) (B1U) (B2U)
                 (AG) (B3U) (B2G) (B1U) (AU) (B3G) (B3U) (B2G)
                 (B2U) (AG) (B3G) (B2U) (B1U) (AG) (B3G) (B2U)
                 (B1U) (B2U) (B3G) (AG) (B1G) (B1U) (B2U) (AU)
                 (B1U) (B2G) (AG) (B3G) (B1G) (B3U) (AG) (B2G)
                 (AU) (B1G) (B2U) (AG) (B2U) (B1U) (B1U) (B3G)
                 (B3G) (AG) (B2U) (B1U) (AG) (B3G) (B3U) (B2U)
                 (AG) (B2G) (B1U) (B1U) (AU) (AG) (B3U) (B3G) (B3G)
                 (B1U) (AU) (B1G) (B1U) (B2U) (AG) (B3G) (B2G)
                 (B1U) (B2U) (B3G) (B2U) (AG) (B2U) (B3G) (B2G)
                 (AU) (AG) (B1U) (B2U) (B1U) (B3U) (B3G) (AG) (B3G)
                 (AG) (B2U) (B1U) (B3G) (B1U) (B2U) (B1G) (AG)
                 (B3G) (B1U) (B2G) (AG) (B2U) (B3G) (B2U) (AG)
                 (B1U) (B1U) (AU) (B3G) (AG) (B3U) (B1U) (B2U)
                 (B3G) (B1U) (AG) (B3G) (B2U) (B1U) (B3G) (AG)
                 (B1U) (B2U) (B3G) (B1G) (AU) (B1U) (B2G) (AG)
                 (B2U) (B3G) (B1U) (AG) (B3G) (B3G) (B2U) (AG)
                 (B1U) (B1U) (B2U) (B3G) (B1U) (AG) (B3G) (B1U)
                 (B2G) (AU) (B2U) (B3G) (B1U) (AG) (B2U) (AG) (B3G)
                 (B1U) (B2U) (B3G) (B2U) (B1U) (AG) (B3G) (B2U)
                 (AG) (B1U) (B3U) (B1G) (B3G) (B2G) (AU) (B3U)
                 (B1U) (AG) (B1G) (B3U) (B2G) (B3U) (B1G) (AU)
                 (B2G) (B1U) (B1G) (B3U) (AG) (B2G) (B2U) (B1U)
                 (B3U) (B1G) (AG) (B3G) (AU) (B2U) (B3G) (AU) (B2G)
                 (B3U) (B1G) (B2U) (AG) (B1G) (AG) (B3U) (B2U)
                 (AG) (B1U) (B3G) (AG) (B2U) (B1U) (B3G) (B2U)
                 (AG) (AU) (B2G) (B1U) (B1G) (B3U) (B3G) (AU) (B2G)
                 (B3U) (B1G) (B2U) (B1U) (AU) (B2G) (B3U) (AG)
                 (B2U) (AG) (B2G) (AU) (B3G) (B2G) (B2U) (B2G)
                 (B3U) (AG) (B1G) (B3G) (AU) (B1U) (B1U) (B3U)
                 (B1G) (AG) (B2U) (AG) (B3G) (B2U) (B1G) (B1U)
                 (B3U) (AU) (AG) (B2G) (B3G) (B1U) (B2U) (B3G)
                 (B3U) (B2U) (AG) (B1G) (B1U) (AU) (B3G) (B1U)
                 (AG) (B1G) (B3G) (B3U) (B1G) (B2G) (AG) (B2U)
                 (B2U) (AU) (AG) (B1U) (B3U) (B2G) (AU) (B2U) (B1U)
                 (AG) (B1G) (B3G) (B2U) (B3U) (B1U) (B2G) (B3G)
                 (AG) (AU) (B2G) (AG) (B3U) (B1U) (B1G) (B1U) (B3G)
                 (B2U) (B3U) (B1G) (AG) (AU) (B2G) (B3U) (AG) (B1U)
                 (B3G) (AU) (B1G) (B3U) (B2U) (B2G) (B2U) (B2G)
                 (B1G) (AU) (AG) (B1U) (B2U) (B2G) (B3G) (AG) (B1G)
                 (B3U) (AU) (B3G) (AG) (AU) (B1U) (B2U) (B2G) (B2U)
                 (B3G) (AU) (B2G) (B1U) (B3U) (AG) (B3G) (B1U)
                 (B2G) (B3G) (B1G) (B2U) (AU) (B2U) (AG) (B1U)
                 (AG) (B3U) (B1U) (B3G) (B3G) (B1G) (AG) (B1U)
                 (B2G) (AG) (AU) (B2U) (B1U) (B3G) (B3G) (AG) (B2U)
                 (B1G) (B3U) (AU) (B3U) (B1G) (B2G) (B2U) (AG)
                 (B1U) (B3U) (AU) (B2G) (B2U) (B2G) (B1G) (AU)
                 (AG) (B3U) (B1U) (B2G) (B3G) (B3G) (B2U) (AU)
                 (B1U) (B2G) (AG) (B1U) (B2U) (AG) (B2U) (B1U)
                 (B3G) (B2U) (B3G) (B1U) (AG) (B1U) (B3G) (B1U)
                 (AG) (B2U) (B3G) (B3G) (B2U) (B1U) (AG) (AG) (B3G)
                 (B2U) (B1U) (B3G) (AG) (B1U) (B3G) (B2U) (B2U)
                 (AG) (B1U) (B1U) (B3G) (B2U) (AG) (B3G) (B1U)
                 (AG) (B3G) (AG) (B2U) (B1U) (B3G) (B1U) (B2U)
                 (B3G) (B3G) (B2U) (B1U) (B2U) (AG) (B1U) (AG)
                 (B3G) (B1U) (B3G) (AG) (B2U) (B1U) (AG) (B2U)
                 (AG) (B1U) (AG) (B3G) (B3G) (B1U) (B2U) (B1U)
                 (AG) (B3G) (B1U) (B2U) (B1U) (B3G) (B3G) (AG)
                 (B2U) (B1U) (B2U) (B3G) (B3G) (B1U) (AG) (B2U)
                 (B1U) (B3G) (AG) (B2U) (B1U) (AG) (B2U) (B1U)
                 (AG) (B3G) (AG) (B3G) (B1U) (B2U) (B1U) (B2U)
                 (B3G) (AG) (B3G) (AG) (B1U) (B2U) (AG) (B2U) (B1U)
                 (B3G) (B1U) (AG) (B1U) (B3G)
 The electronic state of the initial guess is 1-AG.
 Requested convergence on RMS density matrix=1.00D-08 within 128 cycles.
 Requested convergence on MAX density matrix=1.00D-06.
 Requested convergence on             energy=1.00D-06.
 No special actions if energy rises.
 SCF Done:  E(RB3LYP) =  -1228.45780860     A.U. after   13 cycles
            NFock= 13  Conv=0.35D-08     -V/T= 2.0046
 DoSCS=F DFT=T ScalE2(SS,OS)=  1.000000  1.000000
 ExpMin= 3.60D-02 ExpMax= 4.56D+03 ExpMxC= 6.82D+02 IAcc=3 IRadAn=         5 AccDes= 0.00D+00
 HarFok:  IExCor=  205 AccDes= 0.00D+00 IRadAn=         5 IDoV=-2 UseB2=F ITyADJ=14
 ICtDFT= 12500011 ScaDFX=  1.000000  1.000000  1.000000  1.000000
 GSVD:  LWork=       -1280 too small for GESVD, short by        5600 words or        5600 for optimal perf.
 Range of M.O.s used for correlation:    33   973
 NBasis=  1004 NAE=   103 NBE=   103 NFC=    32 NFV=     0
 NROrb=    941 NOA=    71 NOB=    71 NVA=   870 NVB=   870

 **** Warning!!: The largest alpha MO coefficient is  0.13390576D+03


 **** Warning!!: The smallest alpha delta epsilon is  0.97290903D-01

 Orbital symmetries:
       Occupied  (AG) (B1U) (B2U) (B3G) (AG) (B1U) (AG) (B2U) (B1U)
                 (B3G) (B2U) (AG) (B3G) (B1U) (B2U) (AG) (B3G)
                 (B1U) (B1U) (AG) (B1U) (B3G) (AG) (B2U) (AG) (B2U)
                 (B1U) (B3G) (AG) (B2U) (B3G) (B1U) (AG) (B2U)
                 (B1U) (AG) (B3G) (AG) (B2U) (B1U) (B2U) (AG) (B1U)
                 (B3G) (AG) (B3G) (B2U) (B1U) (AG) (B2U) (B1U)
                 (AG) (B3G) (B2U) (B1U) (B3G) (AG) (B1U) (B3G)
                 (AG) (B2U) (B2U) (B1U) (AG) (B2U) (B3G) (B1U)
                 (AG) (AG) (B2U) (B3U) (B1U) (B3G) (B2U) (B3G)
                 (AG) (B2U) (B1G) (AG) (B2G) (B3G) (B1U) (AG) (B3G)
                 (B1U) (B3U) (AU) (B2U) (B1U) (B2U) (B3U) (B1G)
                 (B3G) (AG) (B2G) (B1G) (B2G) (AU) (B3U) (B3U)
                 (AU) (B1G) (B2G)
       Virtual   (B3U) (AU) (B1G) (B2G) (B3U) (B1G) (B2G) (AG)
                 (B2U) (B1U) (B3G) (AG) (B2U) (B1U) (AU) (AG) (B3U)
                 (AG) (B3G) (B2G) (B2U) (AU) (B1U) (B1G) (B3U)
                 (B2U) (B1U) (B2G) (B3U) (AG) (B3G) (AG) (B3G)
                 (AU) (B3U) (B1G) (AG) (B2U) (B1U) (B2G) (AG) (B2U)
                 (B3G) (B1U) (B1G) (AG) (B1U) (AU) (B2U) (B1U)
                 (B2G) (B2U) (AG) (B3G) (B3U) (B1G) (B2U) (B2G)
                 (B2U) (B3G) (B1U) (AG) (B3U) (AG) (AU) (B1U) (B3G)
                 (B2G) (B1G) (AG) (B3G) (B3U) (B1U) (AG) (B2U)
                 (B1U) (B3U) (B2G) (B3G) (AU) (B1G) (AG) (B3U)
                 (B2U) (B1U) (B2U) (AG) (AU) (B3G) (AG) (B2U) (B1G)
                 (AG) (B2G) (B1U) (B1U) (B2U) (AU) (B1U) (B3G)
                 (B2U) (B2G) (AG) (B2U) (B1U) (B1U) (AG) (AG) (B3G)
                 (B2U) (B3U) (B3G) (B2U) (B2G) (AU) (B3G) (AG)
                 (B2U) (AG) (B1U) (AG) (B1U) (B3G) (B3G) (AG) (B2G)
                 (B2U) (B1U) (B3U) (B1U) (B3G) (B1G) (B3G) (B2U)
                 (AG) (B1U) (B1U) (B2U) (AG) (B3G) (AG) (B2U) (B1U)
                 (B3G) (AG) (B2U) (B3G) (B1U) (AU) (B2G) (B2U)
                 (AG) (B1U) (B3G) (AG) (B2U) (B3G) (B1U) (B2U)
                 (B1U) (AG) (B3U) (B3G) (AG) (B2U) (B1G) (B1U)
                 (B1U) (B3G) (AG) (B2U) (B3G) (B3U) (B1G) (B3G)
                 (B2G) (B2U) (AG) (AU) (B3U) (B1U) (B1U) (AG) (B1G)
                 (AG) (B3U) (B2U) (B3U) (B1G) (B2G) (AU) (B3G)
                 (AG) (B2U) (B1U) (B1G) (B3U) (B2G) (B2U) (B3G)
                 (B1U) (B2G) (B1U) (AG) (B2U) (AG) (B2U) (B3G)
                 (AG) (B3U) (AG) (B3G) (B1U) (B3G) (AU) (B1G) (B1U)
                 (B2U) (AG) (B2U) (B3G) (AU) (B2G) (AG) (B1U) (B2U)
                 (B3U) (AU) (B3G) (B1U) (B1G) (B3U) (B2G) (B1G)
                 (B2G) (B3U) (B1G) (B2G) (AG) (B2U) (AU) (B3U)
                 (AG) (B1U) (B2U) (AG) (B1G) (B1U) (B3G) (B3U)
                 (B1G) (AU) (AG) (B3U) (B2G) (B2U) (AU) (B1U) (B3G)
                 (B1U) (AU) (B2G) (B3U) (B3G) (B3U) (B1U) (B1G)
                 (AG) (B2G) (B3G) (B2U) (B3G) (B1U) (AG) (AU) (B1U)
                 (B2U) (B2G) (B2U) (AG) (B1G) (AU) (AG) (B1U) (AG)
                 (B1G) (B2G) (B3G) (B1U) (B2U) (B3G) (AG) (B2U)
                 (B1U) (B3G) (B2U) (B3G) (AG) (B1U) (B2U) (B3U)
                 (B3G) (AG) (AU) (B1U) (B3G) (AG) (B2U) (B2U) (B1U)
                 (B3G) (AG) (B1U) (B3G) (B3U) (B2G) (B1U) (B1G)
                 (B3U) (B2U) (AU) (B1G) (B3U) (B2G) (AG) (B3G)
                 (AG) (B1U) (B2U) (B1G) (B1U) (B3U) (B2G) (B3G)
                 (B2U) (AG) (AU) (B2U) (AG) (AU) (B2G) (B1G) (B3U)
                 (B1U) (B2G) (B3G) (AG) (B1G) (AU) (B2U) (AG) (B3G)
                 (B3U) (AU) (B1U) (B3G) (AG) (B2U) (AG) (B2U) (B1U)
                 (B2G) (AG) (B1G) (B1U) (B2U) (B2G) (B3U) (AU)
                 (B2G) (B2U) (B3G) (AG) (B3G) (B2U) (B3U) (B3G)
                 (B1U) (B1U) (AG) (B3G) (B1U) (B2U) (B2U) (AG)
                 (B1U) (B1G) (B3G) (B2U) (AG) (AU) (B2G) (B3U)
                 (AG) (B2G) (B1G) (B1U) (AG) (B2U) (B1G) (AU) (B2U)
                 (B3G) (B3G) (B1U) (AG) (B2U) (AG) (B3G) (B2U)
                 (B1U) (AG) (B3U) (B1U) (B2G) (B1U) (B3G) (AU)
                 (AG) (B3G) (B1U) (B3U) (AG) (B1U) (B2U) (B1G)
                 (AU) (B1U) (B3G) (B2U) (B3G) (B2G) (B2U) (AG)
                 (B2U) (AU) (B1U) (B2G) (B3G) (B3G) (AG) (AG) (B2U)
                 (B3U) (B1U) (B3G) (B2U) (AG) (B3G) (B1G) (B1U)
                 (B2G) (B1U) (B2U) (AG) (B3G) (AG) (B1U) (B1U)
                 (B2U) (B3G) (AU) (B2U) (B3G) (B1U) (AG) (B3U)
                 (B1U) (B3G) (AG) (B2U) (B3G) (B1U) (AG) (B1U)
                 (B2U) (B3G) (AG) (B1U) (B3G) (B2U) (B1G) (AU)
                 (B1U) (B2G) (AG) (B3G) (B2U) (AG) (B1U) (B1U)
                 (B3G) (AG) (B2U) (B1U) (B3G) (B2U) (B1U) (B3G)
                 (B3G) (B2G) (AU) (AG) (B1U) (B2U) (B3G) (B1U)
                 (AG) (B1U) (B3G) (B2U) (AG) (B2U) (B3G) (B1U)
                 (B2U) (AG) (B3G) (B2U) (AG) (B1U) (B3G) (B3U)
                 (B1U) (AG) (B1G) (B2G) (B3U) (AU) (B3U) (B1G)
                 (B2G) (B3U) (B1G) (B1U) (AU) (B2G) (AG) (B2U)
                 (B1G) (B3U) (B1U) (B3G) (AG) (B2U) (B2G) (B3G)
                 (B3U) (B1G) (AU) (AU) (B2G) (B3U) (B1G) (B2U)
                 (AG) (B1G) (B3U) (AG) (B1U) (AG) (B2U) (AG) (B3G)
                 (B2U) (B1U) (B3G) (B2U) (B1G) (AG) (B3U) (B1U)
                 (B3G) (AU) (B2G) (AU) (B1U) (B2U) (B2G) (AG) (B3U)
                 (B1G) (AU) (B2G) (B3U) (AG) (B2G) (AU) (B2U) (B3G)
                 (B2G) (B2G) (B3U) (B2U) (AG) (B3G) (B1G) (AU)
                 (B1U) (B1U) (B1G) (B3U) (AG) (B3G) (B2U) (B1U)
                 (B1G) (AG) (B3U) (B2U) (AU) (B2G) (AG) (B3G) (B1U)
                 (B3U) (B2U) (B3G) (B1G) (AG) (AU) (B2U) (B1U)
                 (B3G) (B1G) (B1U) (B2G) (AG) (B1G) (B3U) (B3G)
                 (B2U) (AU) (B3U) (AG) (B2U) (B2G) (B1U) (AU) (AG)
                 (B1G) (B1U) (B3U) (B2U) (B2G) (AG) (AU) (B3G)
                 (B2G) (B2U) (B1U) (AG) (B3G) (B3U) (AG) (B1G)
                 (B1U) (B3G) (B3U) (B1G) (B1U) (AU) (B2G) (B3U)
                 (B2U) (AG) (B3U) (B1G) (AU) (B1U) (AG) (B3G) (B2U)
                 (B2G) (B2G) (AU) (B1G) (B2U) (AG) (B2G) (B3U)
                 (B1U) (B1G) (AU) (AU) (AG) (B2U) (B3G) (AG) (B3G)
                 (B2G) (B2G) (B1U) (B2U) (AU) (B3G) (B2U) (B1U)
                 (B3U) (B2G) (AG) (B3G) (B1U) (B3G) (B1G) (AU)
                 (B2U) (B2U) (AG) (B3U) (AG) (B1U) (B1U) (B3G)
                 (B1G) (B2G) (B3G) (AG) (AU) (B1U) (B2U) (AG) (B1G)
                 (B3U) (B3G) (AU) (B1U) (B2G) (B3U) (B1G) (AG)
                 (B3G) (B2U) (B3U) (B2G) (AU) (B2G) (B1G) (B3U)
                 (AU) (B2U) (AG) (B1U) (B2G) (B2U) (B1U) (AG) (AU)
                 (B2U) (B3G) (B2G) (B3G) (AG) (B1U) (B1U) (B2U)
                 (AG) (B3G) (B2U) (B1U) (B2U) (B3G) (B1U) (AG)
                 (B1U) (B3G) (AG) (B1U) (B2U) (B3G) (B3G) (B2U)
                 (B1U) (AG) (AG) (B3G) (B2U) (B3G) (B1U) (B1U)
                 (AG) (B3G) (B2U) (B2U) (B1U) (AG) (B2U) (B3G)
                 (B1U) (B3G) (AG) (B1U) (B3G) (AG) (B1U) (B2U)
                 (AG) (B3G) (B1U) (B3G) (B2U) (B2U) (B3G) (B2U)
                 (B1U) (AG) (B1U) (AG) (B3G) (B1U) (B3G) (AG) (B2U)
                 (B1U) (AG) (B2U) (AG) (B1U) (AG) (B3G) (B1U) (B3G)
                 (B2U) (B1U) (AG) (B3G) (B1U) (B2U) (B1U) (B3G)
                 (B3G) (AG) (B2U) (B1U) (B2U) (B3G) (B3G) (B1U)
                 (AG) (B2U) (B1U) (AG) (B3G) (B2U) (B1U) (AG) (B2U)
                 (B1U) (AG) (B3G) (B3G) (AG) (B1U) (B2U) (B1U)
                 (B2U) (B3G) (AG) (B3G) (AG) (B1U) (B2U) (AG) (B2U)
                 (B1U) (B3G) (B1U) (AG) (B1U) (B3G)
    48 initial guesses have been made.
 Convergence on wavefunction:    0.000001000000000
 Iteration     1 Dimension    48 NMult     0 NNew     48
 CISAX will form    48 AO SS matrices at one time.
 New state      1 was old state      3
 New state      2 was old state      1
 New state      3 was old state      4
 New state      4 was old state      6
 New state      6 was old state      9
 Iteration     2 Dimension    60 NMult    48 NNew     12
 New state      1 was old state      2
 New state      2 was old state      1
 New state      4 was old state      5
 New state      5 was old state      4
 Iteration     3 Dimension    72 NMult    60 NNew     12
 No map to state      6
 Iteration     4 Dimension    84 NMult    72 NNew     12
 Iteration     5 Dimension    96 NMult    84 NNew     12
 Iteration     6 Dimension   108 NMult    96 NNew     12
 Iteration     7 Dimension   120 NMult   108 NNew     12
 Iteration     8 Dimension   132 NMult   120 NNew     12
 Iteration     9 Dimension   144 NMult   132 NNew     12
 Iteration    10 Dimension   154 NMult   144 NNew     10
 Iteration    11 Dimension   160 NMult   154 NNew      6
 Iteration    12 Dimension   162 NMult   160 NNew      2
 ***********************************************************************
 Excited states from <AA,BB:AA,BB> singles matrix:
 ***********************************************************************
 
 Ground to excited state transition densities written to RWF  633
 Ground to excited state transition electric dipole moments (Au):
       state          X           Y           Z        Dip. S.      Osc.
         1        -0.0000      0.0000      1.7462      3.0491      0.1847
         2         0.0000     -0.0121     -0.0000      0.0001      0.0000
         3         0.0000     -0.0000      0.0000      0.0000      0.0000
         4         0.0000      0.0000     -0.0000      0.0000      0.0000
         5        -0.0000      0.0000     -0.0000      0.0000      0.0000
         6        -0.0000     -0.0000     -0.0000      0.0000      0.0000
 Ground to excited state transition velocity dipole moments (Au):
       state          X           Y           Z        Dip. S.      Osc.
         1         0.0000     -0.0000     -0.1600      0.0256      0.1879
         2         0.0000      0.0008      0.0000      0.0000      0.0000
         3        -0.0000      0.0000     -0.0000      0.0000      0.0000
         4        -0.0000     -0.0000      0.0000      0.0000      0.0000
         5         0.0000     -0.0000      0.0000      0.0000      0.0000
         6         0.0000      0.0000      0.0000      0.0000      0.0000
 Ground to excited state transition magnetic dipole moments (Au):
       state          X           Y           Z
         1        -0.0000      0.0000      0.0000
         2        -0.0000     -0.0000     -0.0000
         3        -2.5711      0.0000     -0.0000
         4        -3.1678      0.0000     -0.0000
         5        -0.0000      0.0000      0.0000
         6        -0.0000      0.0000      0.0000
 Ground to excited state transition velocity quadrupole moments (Au):
       state          XX          YY          ZZ          XY          XZ          YZ
         1        -0.0000      0.0000     -0.0000     -0.0000      0.0000     -0.0000
         2        -0.0000     -0.0000     -0.0000      0.0000     -0.0000     -0.0000
         3         0.0000     -0.0000      0.0000      0.0000      0.0000     -0.1444
         4        -0.0000      0.0000     -0.0000      0.0000      0.0000     -0.3418
         5        -0.0053     -0.0645     -0.1773     -0.0000      0.0000     -0.0000
         6         0.0016      0.2668     -0.5641      0.0000      0.0000     -0.0000
 <0|del|b> * <b|rxdel|0> + <0|del|b> * <b|delr+rdel|0>
 Rotatory Strengths (R) in cgs (10**-40 erg-esu-cm/Gauss)
[...]
 -0.06326609,0.,0.,0.00579464,0.,0.,0.00563552,0.,0.,-0.00320871,0.,0.,
 0.00017285,0.,0.,-0.00028914,0.,0.,0.00006112,0.,0.,0.00005458,0.,0.,-
 0.00004439,0.,0.,0.00000663,0.,0.,-0.00000832,0.,0.,0.00006809,0.,0.,-
 0.00000293,0.,0.,-0.00003303,0.,0.,0.00009374,0.,0.,0.00000487,0.,0.,0
 .00026226,0.,0.,0.00000124,0.,0.,-0.00016854,0.,0.,-0.00064435,0.,0.,0
 .00815872,0.,0.,0.12545195,0.,-0.03203850,-0.00217819,0.,0.00771616,-0
 .04073736,0.,0.01328384,0.00717961,0.,0.00608449,-0.00568543,0.,-0.006
 90698,0.00481083,0.,0.00053806,0.00070678,0.,-0.01055576,-0.00646489,0
 .,0.00279575,-0.00102008,0.,-0.00907448,-0.00453965,0.,0.00706835,0.00
 373642,0.,0.00962990,0.00679823,0.,0.00464332,-0.00550851,0.,-0.003788
 63,0.00111685,0.,-0.00045228,0.00099690,0.,0.00553609,0.00122952,0.,-0
 .00598727,-0.00532231,0.,0.00002222,0.00006380,0.,0.00001735,-0.000166
 81,0.,-0.00001048,0.00002662,0.,-0.20445421,-0.06657899,0.,-0.07795101
 ,-0.00825072,0.,0.02238984,0.01403493,0.,0.00124358,-0.00160310,0.,-0.
 01457990,0.00006284,0.,0.00608158,0.00817858,0.,-0.00640860,-0.0056802
 9,0.,-0.00010596,-0.00005722,0.,-0.00004103,0.00008167,0.,-0.00262272,
 -0.00008933,0.,-0.00006469,0.00003176,0.,0.00379754,0.00350814,0.,0.00
 000550,0.00005860,0.,0.00226783,0.00016747,0.,-0.00190220,0.00018304,0
 .,0.00004096,-0.00002247,0.,-0.00138332,-0.00157596,0.,0.00001089,-0.0
 0000271,0.,-0.00023138,0.00798365,0.,0.00008802,-0.00010789,0.,0.00951
 293,0.07205029,0.,0.63690131,0.,0.00324009,0.00485136,0.,-0.03210283,-
 0.02163910,0.,0.00190990,-0.00745546,0.,-0.00186824,0.00179467,0.,0.00
 286162,-0.00111109,0.,-0.00082974,-0.00366318,0.,0.00014425,-0.0016724
 5,0.,0.00017464,-0.00039621,0.,0.00077107,0.00094126,0.,0.00075438,-0.
 00056804,0.,-0.00042580,-0.00217424,0.,-0.00081798,0.00170354,0.,0.001
 12274,-0.00100674,0.,-0.00114837,-0.00061660,0.,0.00062002,-0.00154402
 ,0.,-0.00052348,0.00197746,0.,-0.00003342,-0.00002621,0.,-0.00003295,0
 .00001947,0.,0.00003200,0.00001156,0.,-0.08775709,-0.16704045,0.,0.009
 27205,0.01863361,0.,0.00593543,-0.00061273,0.,0.00152766,0.00084469,0.
 ,-0.00004954,0.00189539,0.,0.00018873,-0.00099591,0.,-0.00088381,0.001
 41359,0.,0.00006259,-0.00010971,0.,0.00008027,0.00004627,0.,-0.0005098
 5,0.00049060,0.,-0.00001559,-0.00001190,0.,0.00001024,-0.00039630,0.,-
 0.00002329,0.00001754,0.,-0.00015784,0.00113572,0.,0.00020283,-0.00143
 651,0.,-0.00002253,-0.00004826,0.,-0.00064811,0.00277441,0.,0.00011410
 ,-0.00007661,0.,0.00116618,-0.00269621,0.,0.00002588,-0.00048167,0.,0.
 03313429,-0.03730572,0.,-0.03908401,0.71884926,0.00567143,0.,0.,-0.002
 23206,0.,0.,-0.00145532,0.,0.,0.00049841,0.,0.,0.00001168,0.,0.,0.0050
 7337,0.,0.,0.00001900,0.,0.,0.00006120,0.,0.,0.00001150,0.,0.,0.000067
 47,0.,0.,0.00004290,0.,0.,-0.00005162,0.,0.,0.00004681,0.,0.,-0.000041
 41,0.,0.,-0.00009304,0.,0.,-0.00064400,0.,0.,0.00015895,0.,0.,0.000003
 17,0.,0.,-0.00001930,0.,0.,0.00699628,0.,0.,0.00448952,0.,0.,-0.000036
 29,0.,0.,-0.00033089,0.,0.,-0.00028677,0.,0.,0.00000243,0.,0.,0.000060
 28,0.,0.,0.00001493,0.,0.,0.00000312,0.,0.,-0.00000764,0.,0.,0.0000026
 3,0.,0.,-0.00004218,0.,0.,0.00000057,0.,0.,0.00008660,0.,0.,-0.0001760
 0,0.,0.,0.00003276,0.,0.,-0.00090267,0.,0.,-0.00001614,0.,0.,0.0038422
 1,0.,0.,0.00011598,0.,0.,-0.06301663,0.,0.,-0.05727349,0.,0.,0.1284049
 0,0.,0.02204032,-0.02844097,0.,-0.00354233,0.01487486,0.,-0.00686674,-
 0.00278012,0.,-0.00428835,0.00366520,0.,0.00655113,-0.00324247,0.,-0.0
 0825158,-0.00443290,0.,0.00527626,0.00261289,0.,-0.00248647,0.00107403
 ,0.,0.00658102,0.00268728,0.,-0.00308541,-0.00257864,0.,-0.00570939,-0
 .00577435,0.,-0.00466305,0.00507927,0.,0.00464173,-0.00081267,0.,-0.00
 144324,-0.00032999,0.,-0.00232974,-0.00076491,0.,0.00352948,0.00194518
 ,0.,-0.00004106,-0.00007700,0.,-0.00001330,0.00014087,0.,0.00002181,-0
 .00002099,0.,-0.06711489,-0.00276807,0.,0.01516612,-0.00576088,0.,-0.0
 1030374,-0.00393419,0.,0.00014943,0.00038965,0.,0.00607523,-0.00020215
 ,0.,-0.00318625,-0.00380817,0.,0.00355940,0.00303301,0.,0.00001488,0.0
 0005989,0.,-0.00003480,-0.00006450,0.,0.00082502,0.00045242,0.,0.00004
 822,-0.00000237,0.,-0.00252383,-0.00209683,0.,0.00000673,-0.00004821,0
 .,-0.00190788,-0.00021269,0.,0.00199744,0.00052177,0.,-0.00000746,-0.0
 0006115,0.,0.00074170,0.00020173,0.,-0.00001373,0.00002118,0.,-0.00591
 468,-0.00296845,0.,-0.00002530,0.00152159,0.,-0.11844236,-0.03880415,0
 .,-0.29262534,0.12532083,0.,0.72880430,0.,-0.04618189,-0.03298036,0.,0
 .01113587,-0.02180568,0.,0.00522604,0.00261266,0.,0.00494772,-0.004799
 15,0.,-0.00887793,0.00287877,0.,0.00081201,0.00742702,0.,-0.00487600,-
 0.00379463,0.,0.00153384,-0.00086772,0.,-0.00683610,-0.00391543,0.,0.0
 0324228,0.00274202,0.,0.00650273,0.00793151,0.,0.00508001,-0.00667831,
 0.,-0.00550719,0.00169795,0.,0.00249897,0.00118028,0.,0.00170255,0.001
 80116,0.,-0.00251438,-0.00450978,0.,0.00001029,0.00003035,0.,0.0000441
 6,-0.00017916,0.,-0.00009602,-0.00000660,0.,0.02829785,0.03622290,0.,-
 0.02513924,-0.00191304,0.,0.01175962,0.00662230,0.,-0.00051105,0.00018
 436,0.,-0.00817163,-0.00098042,0.,0.00380904,0.00631494,0.,-0.00356796
 ,-0.00555008,0.,-0.00008654,-0.00001030,0.,0.00002632,0.00003873,0.,-0
 .00022196,-0.00129495,0.,-0.00005337,0.00001268,0.,0.00261499,0.003378
 42,0.,0.00004842,0.00001861,0.,-0.00017468,-0.00142300,0.,-0.00052269,
 0.00383169,0.,0.00007967,0.00003650,0.,-0.00458182,-0.00753036,0.,-0.0
 0008724,0.00003183,0.,0.00470940,0.01654029,0.,-0.00000552,0.00002843,
 0.,0.00611353,-0.27709281,0.,0.06332050,-0.17992326,0.,0.02267008,0.63
 649308,0.00555233,0.,0.,-0.00091270,0.,0.,-0.00070173,0.,0.,0.00006065
 ,0.,0.,-0.00013635,0.,0.,0.00015392,0.,0.,0.00008843,0.,0.,0.00008078,
 0.,0.,-0.00002829,0.,0.,0.00006581,0.,0.,-0.00000893,0.,0.,0.00000286,
 0.,0.,-0.00000200,0.,0.,0.00000245,0.,0.,-0.00004749,0.,0.,-0.00005767
 ,0.,0.,0.00002295,0.,0.,0.00000166,0.,0.,-0.00000314,0.,0.,0.00764287,
 0.,0.,0.00018667,0.,0.,-0.00041272,0.,0.,0.00009710,0.,0.,-0.00004433,
 0.,0.,0.00000293,0.,0.,-0.00000564,0.,0.,0.00000652,0.,0.,0.00000926,0
 .,0.,0.00000093,0.,0.,0.00000049,0.,0.,-0.00000103,0.,0.,-0.00000087,0
 .,0.,0.00000354,0.,0.,0.00003286,0.,0.,0.00001660,0.,0.,0.00010119,0.,
 0.,-0.00001126,0.,0.,-0.00018851,0.,0.,0.00017020,0.,0.,0.00349252,0.,
 0.,0.00391829,0.,0.,-0.03596310,0.,0.,0.02425650,0.,0.00119240,0.00072
 870,0.,0.00021696,0.00041667,0.,0.00000990,-0.00006572,0.,-0.00003274,
 -0.00001041,0.,0.00008406,-0.00005880,0.,-0.00008500,0.00020970,0.,0.0
 0004768,0.00003393,0.,0.00003583,0.00000339,0.,-0.00000278,0.00004337,
 0.,-0.00001629,-0.00002198,0.,-0.00005223,-0.00008206,0.,-0.00001341,0
 .00004426,0.,0.00001749,-0.00003286,0.,-0.00004824,-0.00005981,0.,0.00
 001611,0.00000380,0.,-0.00004286,0.00007022,0.,-0.00000204,-0.00000589
 ,0.,-0.00000707,0.00000061,0.,0.00000464,-0.00000361,0.,-0.00224682,0.
 00424230,0.,-0.00053712,-0.00116499,0.,-0.00035030,0.00033911,0.,-0.00
 000786,0.00005223,0.,-0.00004103,-0.00008049,0.,-0.00003488,-0.0000263
 0,0.,-0.00001752,0.00007042,0.,0.00000605,0.00001002,0.,-0.00002270,-0
 .00000453,0.,-0.00000963,0.00000349,0.,-0.00000386,-0.00000489,0.,0.00
 002972,-0.00001824,0.,-0.00000800,0.00000573,0.,0.00004112,0.00002248,
 0.,-0.00000765,-0.00007992,0.,0.00000932,-0.00000715,0.,0.00020328,0.0
 0019009,0.,0.00000085,-0.00000812,0.,0.00006546,-0.00046748,0.,0.00000
 389,-0.00004470,0.,0.00246558,0.00068043,0.,-0.01991405,-0.01578942,0.
 ,-0.26431457,-0.11883930,0.,0.28116542,0.,0.00187284,-0.00545738,0.,0.
 00053671,-0.00048047,0.,0.00004078,0.00018662,0.,0.00023122,-0.0000607
 9,0.,0.00003681,-0.00047240,0.,-0.00160267,0.00002428,0.,-0.00022238,-
 0.00013387,0.,0.00006646,-0.00001897,0.,-0.00018932,-0.00006388,0.,0.0
 0010925,0.00011357,0.,0.00017192,0.00018047,0.,0.00014086,-0.00017909,
 0.,-0.00016669,0.00001919,0.,0.00008423,0.00000489,0.,0.00000641,-0.00
 005975,0.,-0.00023182,0.00001436,0.,-0.00001932,-0.00001433,0.,0.00000
 061,-0.00000355,0.,-0.00000151,-0.00000151,0.,0.00335760,-0.00132429,0
 .,0.00013823,0.00059889,0.,0.00040218,-0.00007949,0.,-0.00000398,-0.00
 002548,0.,-0.00008150,0.00004690,0.,0.00006463,0.00003885,0.,-0.000104
 90,-0.00006330,0.,-0.00000300,-0.00000149,0.,0.00000452,0.00000642,0.,
 -0.00007733,-0.00002164,0.,-0.00000008,0.00000096,0.,0.00009371,0.0000
 3765,0.,-0.00000451,0.00000168,0.,0.00002273,-0.00004773,0.,0.00006119
 ,0.00003662,0.,0.00000714,-0.00004154,0.,-0.00013404,0.00017774,0.,0.0
 0001083,-0.00000363,0.,0.00029501,0.00004413,0.,0.00001580,-0.00002899
 ,0.,-0.02849872,-0.01171810,0.,0.01511101,0.01210072,0.,-0.11880864,-0
 .12899333,0.,0.12835113,0.13341914,0.00476988,0.,0.,0.00479985,0.,0.,-
 0.00015176,0.,0.,0.00020809,0.,0.,-0.00120447,0.,0.,-0.00210894,0.,0.,
 0.00002445,0.,0.,-0.00002553,0.,0.,-0.00000064,0.,0.,-0.00008581,0.,0.
 ,0.00002244,0.,0.,-0.00001491,0.,0.,0.00001468,0.,0.,-0.00003009,0.,0.
 ,0.00018270,0.,0.,0.00023744,0.,0.,-0.00004960,0.,0.,0.00000022,0.,0.,
 -0.00000798,0.,0.,-0.00131009,0.,0.,-0.00057004,0.,0.,0.00013092,0.,0.
 ,0.00008551,0.,0.,0.00006345,0.,0.,-0.00003671,0.,0.,0.00000261,0.,0.,
 -0.00000281,0.,0.,-0.00000022,0.,0.,0.00002458,0.,0.,-0.00001013,0.,0.
 ,0.00000785,0.,0.,-0.00001349,0.,0.,-0.00016736,0.,0.,0.00384226,0.,0.
 ,-0.00018881,0.,0.,0.00771509,0.,0.,-0.00029394,0.,0.,-0.05814353,0.,0
 .,0.00481334,0.,0.,-0.06168285,0.,0.,0.00558430,0.,0.,0.00477678,0.,0.
 ,-0.00324882,0.,0.,0.12742748,0.,-0.04636320,0.00034002,0.,0.00023285,
 -0.00574380,0.,0.00011206,-0.00074715,0.,0.00207894,0.00112340,0.,-0.0
 0495931,-0.00201589,0.,0.00144394,0.01126600,0.,-0.00151843,0.00106227
 ,0.,-0.00227536,-0.00001583,0.,0.00158996,-0.00066430,0.,0.00092973,0.
 00005644,0.,0.00009370,-0.00020383,0.,0.00082586,-0.00022343,0.,-0.002
 62350,-0.00051096,0.,0.00462496,0.00010969,0.,-0.00565263,-0.00022180,
 0.,0.00459677,0.00148704,0.,-0.00000871,-0.00002001,0.,-0.00000970,-0.
 00007737,0.,-0.00008833,-0.00000881,0.,-0.00639278,-0.00033765,0.,0.00
 484931,0.00014059,0.,-0.00447647,-0.00163716,0.,0.00003968,0.00000672,
 0.,0.00380223,-0.00000528,0.,-0.00252641,-0.00261831,0.,0.00135532,0.0
 0277130,0.,0.00002491,0.00001650,0.,0.00002960,-0.00009385,0.,-0.00010
 179,0.00138347,0.,-0.00005619,0.00002863,0.,-0.00286464,-0.00167976,0.
 ,0.00006523,-0.00007540,0.,-0.00022676,-0.00116222,0.,-0.00591739,-0.0
 0471270,0.,0.00006531,-0.00029514,0.,0.01312792,-0.02902494,0.,-0.0005
 0213,-0.00027656,0.,-0.12338193,-0.02428355,0.,0.00380620,0.02980009,0
 .,-0.22667618,0.06612960,0.,0.01098769,-0.00447564,0.,-0.00259665,0.02
 338924,0.,0.00085071,-0.00179951,0.,0.64845211,0.,0.00574126,0.0331759
 0,0.,-0.00649555,-0.00109390,0.,-0.00170565,0.00448970,0.,-0.00231116,
 -0.00296410,0.,0.00169863,0.00007527,0.,0.00999500,-0.01836951,0.,0.00
 197336,-0.00156734,0.,0.00239692,0.00072293,0.,-0.00161357,0.00007260,
 0.,-0.00147379,-0.00008632,0.,-0.00019545,0.00210542,0.,0.00045492,-0.
 00129806,0.,-0.00009291,0.00049227,0.,0.00018131,-0.00065306,0.,-0.000
 36714,0.00059800,0.,0.00280140,-0.00214842,0.,-0.00003390,-0.00001826,
 0.,0.00000361,-0.00002176,0.,-0.00000498,-0.00000959,0.,0.00749360,-0.
 00050034,0.,-0.00585064,0.00000967,0.,0.00453544,0.00168209,0.,-0.0001
 5486,0.00006462,0.,-0.00350703,-0.00039671,0.,0.00209622,0.00337706,0.
 ,-0.00082269,-0.00344007,0.,-0.00003657,-0.00000125,0.,0.00001827,0.00
 003761,0.,0.00138282,-0.00171276,0.,-0.00000973,-0.00003759,0.,0.00168
 035,0.00207099,0.,0.00000839,0.00003463,0.,-0.00798022,-0.00269534,0.,
 0.00296598,0.01653724,0.,0.00046745,0.00004401,0.,-0.04755629,-0.04522
 162,0.,-0.00022874,-0.00007302,0.,0.02428449,-0.40257359,0.,-0.0015918
 6,-0.01206138,0.,0.03721687,-0.13134950,0.,-0.01485481,-0.00172633,0.,
 0.04340829,-0.04309764,0.,0.00152593,0.00144341,0.,0.06293849,0.734638
 32,0.00396517,0.,0.,0.00011168,0.,0.,-0.00003825,0.,0.,0.00000432,0.,0
 .,-0.00063259,0.,0.,-0.00084474,0.,0.,-0.00005168,0.,0.,0.00003712,0.,
 0.,0.00001786,0.,0.,0.00002059,0.,0.,0.00000231,0.,0.,0.00000261,0.,0.
 ,-0.00000934,0.,0.,-0.00002449,0.,0.,0.00006395,0.,0.,0.00019724,0.,0.
 ,-0.00001985,0.,0.,0.00000052,0.,0.,0.00000304,0.,0.,0.00006346,0.,0.,
 0.00000788,0.,0.,-0.00000099,0.,0.,0.00000997,0.,0.,-0.00000213,0.,0.,
 0.00000011,0.,0.,0.00000720,0.,0.,0.00000356,0.,0.,-0.00000097,0.,0.,-
 0.00000767,0.,0.,0.00000324,0.,0.,-0.00001552,0.,0.,0.00000393,0.,0.,-
 0.00064649,0.,0.,0.00011512,0.,0.,0.00016998,0.,0.,0.00890490,0.,0.,-0
 .00001576,0.,0.,0.00481409,0.,0.,-0.00546186,0.,0.,0.00296970,0.,0.,-0
 .00017792,0.,0.,-0.00208404,0.,0.,0.00028508,0.,0.,-0.03554516,0.,0.,0
 .02373838,0.,-0.00252912,0.00405662,0.,-0.00068747,-0.00135289,0.,-0.0
 0025302,0.00037080,0.,0.00013092,0.00003879,0.,-0.00001437,-0.00009810
 ,0.,0.00019596,0.00062392,0.,-0.00014530,-0.00016307,0.,0.00003224,-0.
 00001557,0.,-0.00006021,0.00001424,0.,-0.00000793,0.00008284,0.,0.0000
 2997,0.00001330,0.,0.00004820,-0.00005331,0.,-0.00006461,-0.00001571,0
 .,-0.00001610,-0.00003818,0.,0.00000697,-0.00002405,0.,-0.00009839,0.0
 0008376,0.,-0.00000587,-0.00000844,0.,-0.00000386,-0.00000008,0.,0.000
 00235,-0.00000324,0.,0.00022812,0.00002534,0.,0.00009010,0.00004210,0.
 ,0.00000483,0.00000591,0.,-0.00002324,0.00002219,0.,0.00000563,0.00002
 357,0.,0.00000673,-0.00004842,0.,-0.00004178,0.00001781,0.,-0.00000133
 ,0.00000605,0.,-0.00000800,0.00000450,0.,-0.00005617,-0.00000968,0.,-0
 .00000092,-0.00000216,0.,0.00006520,-0.00000836,0.,-0.00001071,0.00000
 367,0.,0.00008817,-0.00002564,0.,-0.00002531,0.00000552,0.,0.00000388,
 -0.00001580,0.,0.00157121,0.00094378,0.,0.00000202,0.00000152,0.,0.003
 80618,0.00159193,0.,0.00091018,-0.00035349,0.,-0.01980055,-0.01525734,
 0.,-0.00002158,0.00038469,0.,0.00121249,-0.00182792,0.,0.00034765,0.00
 118013,0.,-0.26545945,-0.11942188,0.,0.28058176,0.,0.00279211,-0.00176
 300,0.,0.00062533,0.00062593,0.,0.00011828,-0.00015017,0.,-0.00007911,
 -0.00007600,0.,0.00002057,0.00011148,0.,0.00028757,-0.00042404,0.,0.00
 011926,0.00002090,0.,0.00005798,0.00003462,0.,-0.00004010,0.00003882,0
 .,-0.00003222,-0.00004451,0.,-0.00004781,-0.00002703,0.,-0.00000220,0.
 00001248,0.,0.00003147,-0.00001169,0.,-0.00008629,-0.00005372,0.,0.000
 08494,0.00001738,0.,0.00000367,0.00005153,0.,0.00000281,-0.00000376,0.
 ,-0.00000488,0.00000095,0.,0.00000479,-0.00000233,0.,0.00004776,0.0001
 1562,0.,-0.00004611,-0.00003197,0.,0.00002877,0.00007747,0.,0.00000965
 ,-0.00000273,0.,-0.00005907,0.00001710,0.,0.00004843,0.00001884,0.,-0.
 00004723,-0.00000415,0.,0.00000422,0.00000065,0.,-0.00000572,0.0000017
 0,0.,0.00002852,-0.00003761,0.,-0.00000216,-0.00000445,0.,0.00007532,0
 .00003452,0.,-0.00000368,0.00000577,0.,0.00010739,-0.00048212,0.,-0.00
 152132,0.00002871,0.,0.00004471,-0.00002897,0.,0.00216938,-0.00498505,
 0.,-0.00013504,-0.00008574,0.,-0.02980019,-0.01206149,0.,0.00035348,0.
 00104061,0.,0.01402718,0.01056274,0.,-0.00032751,0.00002633,0.,0.00111
 343,0.00133613,0.,-0.00048212,-0.00008873,0.,-0.11863600,-0.12793215,0
 .,0.12916977,0.13410985,-0.00080895,0.,0.,0.00496475,0.,0.,0.00035212,
 0.,0.,-0.00040378,0.,0.,0.00004053,0.,0.,-0.00060711,0.,0.,0.00016548,
 0.,0.,-0.00005568,0.,0.,-0.00000995,0.,0.,0.00003787,0.,0.,0.00001297,
 0.,0.,-0.00001808,0.,0.,-0.00000513,0.,0.,-0.00001366,0.,0.,-0.0000170
 1,0.,0.,0.00016848,0.,0.,-0.00004807,0.,0.,-0.00000290,0.,0.,0.0000520
 6,0.,0.,0.00313513,0.,0.,-0.00267562,0.,0.,-0.00031235,0.,0.,0.0004456
 3,0.,0.,0.00005456,0.,0.,0.00001467,0.,0.,-0.00001377,0.,0.,-0.0000030
 6,0.,0.,0.00000653,0.,0.,-0.00000711,0.,0.,0.00000370,0.,0.,-0.0000037
 8,0.,0.,0.00000370,0.,0.,-0.00000160,0.,0.,-0.00001490,0.,0.,-0.000011
 09,0.,0.,0.00008465,0.,0.,0.00000927,0.,0.,-0.00029345,0.,0.,-0.000015
 02,0.,0.,0.00733696,0.,0.,-0.03424490,0.,0.,0.00417773,0.,0.,-0.004480
 83,0.,0.,0.00015979,0.,0.,0.00005644,0.,0.,0.02278479,0.,-0.00074492,-
 0.00006469,0.,-0.00506539,-0.00141988,0.,0.00068506,-0.00127098,0.,-0.
 00039954,-0.00014889,0.,-0.00014289,0.00017527,0.,0.00022678,0.0000617
 2,0.,-0.00000406,-0.00011024,0.,0.00006602,-0.00016062,0.,-0.00006774,
 -0.00008946,0.,0.00012551,0.00019057,0.,0.00016648,0.00014803,0.,0.000
 02160,-0.00009572,0.,-0.00001011,0.00003163,0.,-0.00003190,0.00006708,
 0.,0.00000410,0.00005009,0.,0.00004646,-0.00011450,0.,0.00000383,-0.00
 000097,0.,0.00000463,-0.00000150,0.,-0.00000979,-0.00000469,0.,0.00384
 344,-0.02770327,0.,0.00120840,-0.00149792,0.,0.00026035,0.00038485,0.,
 -0.00029176,0.00081718,0.,-0.00010509,-0.00006171,0.,0.00001448,0.0000
 8601,0.,-0.00006563,-0.00011282,0.,-0.00004012,0.00001533,0.,0.0000060
 4,0.00000297,0.,-0.00008821,-0.00000493,0.,0.00000236,0.00000478,0.,0.
 00002496,0.00003662,0.,-0.00000132,-0.00000422,0.,0.00001174,-0.000113
 39,0.,-0.00001416,0.00008675,0.,0.00000083,-0.00001085,0.,-0.00004836,
 -0.00022084,0.,0.00000049,0.00000581,0.,-0.00050208,0.00022886,0.,0.00
 000203,0.00013504,0.,-0.00471279,0.00185915,0.,-0.05954287,-0.00185694
 ,0.,0.00448944,0.02910531,0.,0.00100454,-0.00046403,0.,0.00069294,0.00
 104042,0.,-0.00003550,-0.00001802,0.,0.05901175,0.,-0.00012567,0.00041
 742,0.,-0.00280098,0.00064459,0.,0.00062606,-0.00061501,0.,-0.00032797
 ,-0.00007240,0.,-0.00003860,0.00004037,0.,0.00005177,0.00003659,0.,0.0
 0006375,0.00017206,0.,0.00005128,-0.00007542,0.,0.00001035,-0.00001661
 ,0.,-0.00001566,0.00008060,0.,-0.00000250,0.00003020,0.,-0.00002102,-0
 .00000652,0.,0.00002673,0.00001143,0.,-0.00003191,0.00001731,0.,-0.000
 01887,0.00005775,0.,0.00005102,-0.00006334,0.,-0.00000013,-0.00000854,
 0.,-0.00000361,-0.00000151,0.,-0.00000470,-0.00000833,0.,0.00178086,-0
 .01262499,0.,0.00161714,0.00074166,0.,-0.00042715,0.00015221,0.,-0.000
 81225,0.00054243,0.,0.00005762,-0.00010924,0.,-0.00006004,-0.00001046,
 0.,0.00000054,-0.00001328,0.,-0.00001533,0.00002472,0.,-0.00001002,-0.
 00000151,0.,-0.00000875,-0.00000958,0.,-0.00000324,-0.00000233,0.,-0.0
 0001648,-0.00000122,0.,-0.00000605,0.00000066,0.,0.00000333,-0.0000761
 5,0.,-0.00002152,0.00003143,0.,0.00000811,-0.00000364,0.,0.00002884,-0
 .00004682,0.,-0.00000581,-0.00000555,0.,0.00027665,-0.00007292,0.,-0.0
 0000151,-0.00008573,0.,0.00282712,0.00119337,0.,-0.00157979,-0.3347925
 1,0.,-0.00199799,-0.01204662,0.,0.00031080,0.00088724,0.,-0.00048261,-
 0.00062213,0.,0.00003058,0.00001127,0.,0.00101758,0.35629908\\0.,-0.00
 000348,-0.00000100,0.,0.00000309,0.00000067,0.,0.,-0.00000616,0.,0.,0.
 00000616,0.,0.00000309,-0.00000067,0.,-0.00000348,0.00000100,0.,-0.000
 00309,0.00000067,0.,-0.00000309,-0.00000067,0.,0.00000348,0.00000100,0
 .,0.00000348,-0.00000100,0.,-0.00000307,-0.00000172,0.,-0.00000240,0.0
 0000295,0.,0.00000419,-0.00000142,0.,-0.00000083,-0.00000067,0.,0.,-0.
 00000181,0.,0.00000083,-0.00000067,0.,0.,-0.00000008,0.,0.00000073,-0.
 00000103,0.,-0.00000102,-0.00000039,0.,0.00000083,0.00000067,0.,0.,0.0
 0000181,0.,-0.00000083,0.00000067,0.,0.,0.00000008,0.,0.00000419,0.000
 00142,0.,-0.00000240,-0.00000295,0.,-0.00000307,0.00000172,0.,-0.00000
 102,0.00000039,0.,0.00000073,0.00000103,0.,0.00000183,-0.00000423,0.,-
 0.00000053,0.00000086,0.,0.00000183,0.00000423,0.,-0.00000053,-0.00000
 086,0.,-0.00000419,-0.00000142,0.,0.00000240,0.00000295,0.,-0.00000073
 ,-0.00000103,0.,0.00000307,-0.00000172,0.,0.00000102,-0.00000039,0.,-0
 .00000183,-0.00000423,0.,0.00000053,0.00000086,0.,0.00000307,0.0000017
 2,0.,-0.00000419,0.00000142,0.,0.00000240,-0.00000295,0.,-0.00000073,0
 .00000103,0.,-0.00000183,0.00000423,0.,0.00000053,-0.00000086,0.,0.000
 00102,0.00000039\\\@


 CLIMB THE MOUNTAINS AND GET THEIR GOOD TIDINGS.
 NATURE'S PEACE WILL FLOW INTO YOU AS SUNSHINE FLOWS INTO TREES.
 THE WINDS WILL BLOW THEIR OWN FRESHNESS INTO YOU, 
 AND CARES WILL DROP OFF LIKE AUTUMN LEAVES.

                                         -- JOHN MUIR
 Job cpu time:       3 days 22 hours 39 minutes 58.4 seconds.
 Elapsed time:       0 days  5 hours 56 minutes  9.1 seconds.
 File lengths (MBytes):  RWF=  13472 Int=      0 D2E=      0 Chk=    302 Scr=      1
 Normal termination of Gaussian 16 at Tue Feb  7 19:36:46 2023.
