 Entering Gaussian System, Link 0=g16
 Input=/home/giogina/Gaussian/ovalene/5th excited/ovalene-excited-5-opt-freq-disp.gjf
 Output=/home/giogina/Gaussian/ovalene/5th excited/ovalene-excited-5-opt-freq-disp.log
 Initial command:
 /opt//g16/l1.exe "/opt/g16/scratch/Gau-2197588.inp" -scrdir="/opt/g16/scratch/"
 Default is to use a total of  12 processors:
                               12 via shared-memory
                                1 via Linda
 Entering Link 1 = /opt//g16/l1.exe PID=   2197592.
  
 Copyright (c) 1988,1990,1992,1993,1995,1998,2003,2009,2016,
            Gaussian, Inc.  All Rights Reserved.
  
 This is part of the Gaussian(R) 16 program.  It is based on
 the Gaussian(R) 09 system (copyright 2009, Gaussian, Inc.),
 the Gaussian(R) 03 system (copyright 2003, Gaussian, Inc.),
 the Gaussian(R) 98 system (copyright 1998, Gaussian, Inc.),
 the Gaussian(R) 94 system (copyright 1995, Gaussian, Inc.),
 the Gaussian 92(TM) system (copyright 1992, Gaussian, Inc.),
 the Gaussian 90(TM) system (copyright 1990, Gaussian, Inc.),
 the Gaussian 88(TM) system (copyright 1988, Gaussian, Inc.),
 the Gaussian 86(TM) system (copyright 1986, Carnegie Mellon
 University), and the Gaussian 82(TM) system (copyright 1983,
 Carnegie Mellon University). Gaussian is a federally registered
 trademark of Gaussian, Inc.
  
 This software contains proprietary and confidential information,
 including trade secrets, belonging to Gaussian, Inc.
  
 This software is provided under written license and may be
 used, copied, transmitted, or stored only in accord with that
 written license.
  
 The following legend is applicable only to US Government
 contracts under FAR:
  
                    RESTRICTED RIGHTS LEGEND
  
 Use, reproduction and disclosure by the US Government is
 subject to restrictions as set forth in subparagraphs (a)
 and (c) of the Commercial Computer Software - Restricted
 Rights clause in FAR 52.227-19.
  
 Gaussian, Inc.
 340 Quinnipiac St., Bldg. 40, Wallingford CT 06492
  
  
 ---------------------------------------------------------------
 Warning -- This program may not be used in any manner that
 competes with the business of Gaussian, Inc. or will provide
 assistance to any competitor of Gaussian, Inc.  The licensee
 of this program is prohibited from giving any competitor of
 Gaussian, Inc. access to this program.  By using this program,
 the user acknowledges that Gaussian, Inc. is engaged in the
 business of creating and licensing software in the field of
 computational chemistry and represents and warrants to the
 licensee that it is not a competitor of Gaussian, Inc. and that
 it will not use this program in any manner prohibited above.
 ---------------------------------------------------------------
  

 Cite this work as:
 Gaussian 16, Revision A.03,
 M. J. Frisch, G. W. Trucks, H. B. Schlegel, G. E. Scuseria, 
 M. A. Robb, J. R. Cheeseman, G. Scalmani, V. Barone, 
 G. A. Petersson, H. Nakatsuji, X. Li, M. Caricato, A. V. Marenich, 
 J. Bloino, B. G. Janesko, R. Gomperts, B. Mennucci, H. P. Hratchian, 
 J. V. Ortiz, A. F. Izmaylov, J. L. Sonnenberg, D. Williams-Young, 
 F. Ding, F. Lipparini, F. Egidi, J. Goings, B. Peng, A. Petrone, 
 T. Henderson, D. Ranasinghe, V. G. Zakrzewski, J. Gao, N. Rega, 
 G. Zheng, W. Liang, M. Hada, M. Ehara, K. Toyota, R. Fukuda, 
 J. Hasegawa, M. Ishida, T. Nakajima, Y. Honda, O. Kitao, H. Nakai, 
 T. Vreven, K. Throssell, J. A. Montgomery, Jr., J. E. Peralta, 
 F. Ogliaro, M. J. Bearpark, J. J. Heyd, E. N. Brothers, K. N. Kudin, 
 V. N. Staroverov, T. A. Keith, R. Kobayashi, J. Normand, 
 K. Raghavachari, A. P. Rendell, J. C. Burant, S. S. Iyengar, 
 J. Tomasi, M. Cossi, J. M. Millam, M. Klene, C. Adamo, R. Cammi, 
 J. W. Ochterski, R. L. Martin, K. Morokuma, O. Farkas, 
 J. B. Foresman, and D. J. Fox, Gaussian, Inc., Wallingford CT, 2016.
 
 ******************************************
 Gaussian 16:  ES64L-G16RevA.03 25-Dec-2016
                 2-Mar-2023 
 ******************************************
 %mem=20GB
 %nprocshared=18
 Will use up to   18 processors via shared memory.
 %chk=ovalene-excited-5-opt-freq-disp.chk
 ----------------------------------------------------------------------
 # opt=tight freq=(savenormalmodes,hpmodes) td=(nstates=12,root=5) b3ly
 p/6-311++g(2d,2p) geom=connectivity empiricaldispersion=gd3bj
 ----------------------------------------------------------------------
 1/7=10,18=20,19=15,26=3,38=1,57=2/1,3;
 2/9=110,12=2,17=6,18=5,40=1/2;
 3/5=4,6=6,7=1212,11=9,25=1,30=1,71=1,74=-5,124=41/1,2,3,8;
 4//1;
 5/5=2,38=5/2;
 8/6=1,10=2,107=5,108=12/1;
 9/8=5,15=2,41=12,42=1,70=2/14;
 10/5=4,28=5/2;
 6/7=2,8=2,9=2,10=2/1;
 7/12=6,13=5,14=5,92=1/1,2,3,16;
 1/7=10,18=20,19=15,26=3/3(2);
 2/9=110/2;
 99//99;
 2/9=110/2;
 3/5=4,6=6,7=1212,11=9,25=1,30=1,71=1,74=-5,124=41/1,2,3,8;
 4/5=5,16=3,69=1/1;
 5/5=2,38=5/2;
 8/6=1,10=2,107=5,108=12/1;
 9/8=5,15=2,41=12,42=1,49=4,70=2/14;
 10/5=4,28=5/2;
 7/12=6,13=5,14=5,92=1/1,2,3,16;
 1/7=10,18=20,19=15,26=3/3(-8);
 2/9=110/2;
 6/7=2,8=2,9=2,10=2/1;
 99//99;
 -----------------------------------------
 Ovalene excited state optimization + freq
 -----------------------------------------
 Symbolic Z-matrix:
 Charge =  0 Multiplicity = 1
 C                     0.        2.45109   0.71361 
 C                     0.        1.23145   1.41802 
 C                     0.        0.        0.70855 
 C                     0.        0.       -0.70855 
 C                     0.        1.23145  -1.41802 
 C                     0.        2.45109  -0.71361 
 C                     0.       -1.23145   1.41802 
 C                     0.       -1.23145  -1.41802 
 C                     0.       -2.45109  -0.71361 
 C                     0.       -2.45109   0.71361 
 C                     0.       -3.69199  -1.42404 
 C                     0.       -3.65887  -2.84756 
 C                     0.       -2.47491  -3.53435 
 C                     0.       -1.22515  -2.85657 
 C                     0.        0.       -3.53517 
 C                     0.        1.22515  -2.85657 
 H                     0.        0.       -4.6174 
 H                     0.       -4.59722  -3.38557 
 H                     0.       -2.47569  -4.61601 
 C                     0.        1.22515   2.85657 
 C                     0.        0.        3.53517 
 C                     0.       -1.22515   2.85657 
 H                     0.        0.        4.6174 
 C                     0.       -2.47491   3.53435 
 C                     0.       -3.65887   2.84756 
 C                     0.       -3.69199   1.42404 
 H                     0.       -2.47569   4.61601 
 H                     0.       -4.59722   3.38557 
 C                     0.       -4.89502  -0.69326 
 H                     0.       -5.83296  -1.23161 
 C                     0.       -4.89502   0.69326 
 H                     0.       -5.83296   1.23161 
 C                     0.        2.47491  -3.53435 
 C                     0.        3.65887  -2.84756 
 H                     0.        4.59722  -3.38557 
 C                     0.        3.69199  -1.42404 
 H                     0.        2.47569  -4.61601 
 C                     0.        4.89502  -0.69326 
 H                     0.        5.83296  -1.23161 
 C                     0.        3.69199   1.42404 
 C                     0.        2.47491   3.53435 
 C                     0.        3.65887   2.84756 
 H                     0.        4.59722   3.38557 
 C                     0.        4.89502   0.69326 
 H                     0.        5.83296   1.23161 
 H                     0.        2.47569   4.61601 
 

 GradGradGradGradGradGradGradGradGradGradGradGradGradGradGradGradGradGrad
 Berny optimization.
 Initialization pass.
                           ----------------------------
                           !    Initial Parameters    !
                           ! (Angstroms and Degrees)  !
 --------------------------                            --------------------------
 ! Name  Definition              Value          Derivative Info.                !
 --------------------------------------------------------------------------------
 ! R1    R(1,2)                  1.4084         estimate D2E/DX2                !
 ! R2    R(1,6)                  1.4272         estimate D2E/DX2                !
 ! R3    R(1,40)                 1.4299         estimate D2E/DX2                !
 ! R4    R(2,3)                  1.4212         estimate D2E/DX2                !
 ! R5    R(2,20)                 1.4386         estimate D2E/DX2                !
 ! R6    R(3,4)                  1.4171         estimate D2E/DX2                !
 ! R7    R(3,7)                  1.4212         estimate D2E/DX2                !
 ! R8    R(4,5)                  1.4212         estimate D2E/DX2                !
 ! R9    R(4,8)                  1.4212         estimate D2E/DX2                !
 ! R10   R(5,6)                  1.4084         estimate D2E/DX2                !
 ! R11   R(5,16)                 1.4386         estimate D2E/DX2                !
 ! R12   R(6,36)                 1.4299         estimate D2E/DX2                !
 ! R13   R(7,10)                 1.4084         estimate D2E/DX2                !
 ! R14   R(7,22)                 1.4386         estimate D2E/DX2                !
 ! R15   R(8,9)                  1.4084         estimate D2E/DX2                !
 ! R16   R(8,14)                 1.4386         estimate D2E/DX2                !
 ! R17   R(9,10)                 1.4272         estimate D2E/DX2                !
 ! R18   R(9,11)                 1.4299         estimate D2E/DX2                !
 ! R19   R(10,26)                1.4299         estimate D2E/DX2                !
 ! R20   R(11,12)                1.4239         estimate D2E/DX2                !
 ! R21   R(11,29)                1.4076         estimate D2E/DX2                !
 ! R22   R(12,13)                1.3687         estimate D2E/DX2                !
 ! R23   R(12,18)                1.0816         estimate D2E/DX2                !
 ! R24   R(13,14)                1.4217         estimate D2E/DX2                !
 ! R25   R(13,19)                1.0817         estimate D2E/DX2                !
 ! R26   R(14,15)                1.4005         estimate D2E/DX2                !
 ! R27   R(15,16)                1.4005         estimate D2E/DX2                !
 ! R28   R(15,17)                1.0822         estimate D2E/DX2                !
 ! R29   R(16,33)                1.4217         estimate D2E/DX2                !
 ! R30   R(20,21)                1.4005         estimate D2E/DX2                !
 ! R31   R(20,41)                1.4217         estimate D2E/DX2                !
 ! R32   R(21,22)                1.4005         estimate D2E/DX2                !
 ! R33   R(21,23)                1.0822         estimate D2E/DX2                !
 ! R34   R(22,24)                1.4217         estimate D2E/DX2                !
 ! R35   R(24,25)                1.3687         estimate D2E/DX2                !
 ! R36   R(24,27)                1.0817         estimate D2E/DX2                !
 ! R37   R(25,26)                1.4239         estimate D2E/DX2                !
 ! R38   R(25,28)                1.0816         estimate D2E/DX2                !
 ! R39   R(26,31)                1.4076         estimate D2E/DX2                !
 ! R40   R(29,30)                1.0815         estimate D2E/DX2                !
 ! R41   R(29,31)                1.3865         estimate D2E/DX2                !
 ! R42   R(31,32)                1.0815         estimate D2E/DX2                !
 ! R43   R(33,34)                1.3687         estimate D2E/DX2                !
 ! R44   R(33,37)                1.0817         estimate D2E/DX2                !
 ! R45   R(34,35)                1.0816         estimate D2E/DX2                !
 ! R46   R(34,36)                1.4239         estimate D2E/DX2                !
 ! R47   R(36,38)                1.4076         estimate D2E/DX2                !
 ! R48   R(38,39)                1.0815         estimate D2E/DX2                !
 ! R49   R(38,44)                1.3865         estimate D2E/DX2                !
 ! R50   R(40,42)                1.4239         estimate D2E/DX2                !
 ! R51   R(40,44)                1.4076         estimate D2E/DX2                !
 ! R52   R(41,42)                1.3687         estimate D2E/DX2                !
 ! R53   R(41,46)                1.0817         estimate D2E/DX2                !
 ! R54   R(42,43)                1.0816         estimate D2E/DX2                !
 ! R55   R(44,45)                1.0815         estimate D2E/DX2                !
 ! A1    A(2,1,6)              120.009          estimate D2E/DX2                !
 ! A2    A(2,1,40)             120.1994         estimate D2E/DX2                !
 ! A3    A(6,1,40)             119.7917         estimate D2E/DX2                !
 ! A4    A(1,2,3)              120.0434         estimate D2E/DX2                !
 ! A5    A(1,2,20)             120.2599         estimate D2E/DX2                !
 ! A6    A(3,2,20)             119.6967         estimate D2E/DX2                !
 ! A7    A(2,3,4)              119.9476         estimate D2E/DX2                !
 ! A8    A(2,3,7)              120.1048         estimate D2E/DX2                !
 ! A9    A(4,3,7)              119.9476         estimate D2E/DX2                !
 ! A10   A(3,4,5)              119.9476         estimate D2E/DX2                !
 ! A11   A(3,4,8)              119.9476         estimate D2E/DX2                !
 ! A12   A(5,4,8)              120.1048         estimate D2E/DX2                !
 ! A13   A(4,5,6)              120.0434         estimate D2E/DX2                !
 ! A14   A(4,5,16)             119.6967         estimate D2E/DX2                !
 ! A15   A(6,5,16)             120.2599         estimate D2E/DX2                !
 ! A16   A(1,6,5)              120.009          estimate D2E/DX2                !
 ! A17   A(1,6,36)             119.7917         estimate D2E/DX2                !
 ! A18   A(5,6,36)             120.1994         estimate D2E/DX2                !
 ! A19   A(3,7,10)             120.0434         estimate D2E/DX2                !
 ! A20   A(3,7,22)             119.6967         estimate D2E/DX2                !
 ! A21   A(10,7,22)            120.2599         estimate D2E/DX2                !
 ! A22   A(4,8,9)              120.0434         estimate D2E/DX2                !
 ! A23   A(4,8,14)             119.6967         estimate D2E/DX2                !
 ! A24   A(9,8,14)             120.2599         estimate D2E/DX2                !
 ! A25   A(8,9,10)             120.009          estimate D2E/DX2                !
 ! A26   A(8,9,11)             120.1994         estimate D2E/DX2                !
 ! A27   A(10,9,11)            119.7917         estimate D2E/DX2                !
 ! A28   A(7,10,9)             120.009          estimate D2E/DX2                !
 ! A29   A(7,10,26)            120.1994         estimate D2E/DX2                !
 ! A30   A(9,10,26)            119.7917         estimate D2E/DX2                !
 ! A31   A(9,11,12)            118.4587         estimate D2E/DX2                !
 ! A32   A(9,11,29)            118.9316         estimate D2E/DX2                !
 ! A33   A(12,11,29)           122.6098         estimate D2E/DX2                !
 ! A34   A(11,12,13)           121.4504         estimate D2E/DX2                !
 ! A35   A(11,12,18)           118.4953         estimate D2E/DX2                !
 ! A36   A(13,12,18)           120.0543         estimate D2E/DX2                !
 ! A37   A(12,13,14)           121.4104         estimate D2E/DX2                !
 ! A38   A(12,13,19)           120.076          estimate D2E/DX2                !
 ! A39   A(14,13,19)           118.5136         estimate D2E/DX2                !
 ! A40   A(8,14,13)            118.2213         estimate D2E/DX2                !
 ! A41   A(8,14,15)            119.2324         estimate D2E/DX2                !
 ! A42   A(13,14,15)           122.5462         estimate D2E/DX2                !
 ! A43   A(14,15,16)           122.0369         estimate D2E/DX2                !
 ! A44   A(14,15,17)           118.9816         estimate D2E/DX2                !
 ! A45   A(16,15,17)           118.9816         estimate D2E/DX2                !
 ! A46   A(5,16,15)            119.2324         estimate D2E/DX2                !
 ! A47   A(5,16,33)            118.2213         estimate D2E/DX2                !
 ! A48   A(15,16,33)           122.5462         estimate D2E/DX2                !
 ! A49   A(2,20,21)            119.2324         estimate D2E/DX2                !
 ! A50   A(2,20,41)            118.2213         estimate D2E/DX2                !
 ! A51   A(21,20,41)           122.5462         estimate D2E/DX2                !
 ! A52   A(20,21,22)           122.0369         estimate D2E/DX2                !
 ! A53   A(20,21,23)           118.9816         estimate D2E/DX2                !
 ! A54   A(22,21,23)           118.9816         estimate D2E/DX2                !
 ! A55   A(7,22,21)            119.2324         estimate D2E/DX2                !
 ! A56   A(7,22,24)            118.2213         estimate D2E/DX2                !
 ! A57   A(21,22,24)           122.5462         estimate D2E/DX2                !
 ! A58   A(22,24,25)           121.4104         estimate D2E/DX2                !
 ! A59   A(22,24,27)           118.5136         estimate D2E/DX2                !
 ! A60   A(25,24,27)           120.076          estimate D2E/DX2                !
 ! A61   A(24,25,26)           121.4504         estimate D2E/DX2                !
 ! A62   A(24,25,28)           120.0543         estimate D2E/DX2                !
 ! A63   A(26,25,28)           118.4953         estimate D2E/DX2                !
 ! A64   A(10,26,25)           118.4587         estimate D2E/DX2                !
 ! A65   A(10,26,31)           118.9316         estimate D2E/DX2                !
 ! A66   A(25,26,31)           122.6098         estimate D2E/DX2                !
 ! A67   A(11,29,30)           118.8683         estimate D2E/DX2                !
 ! A68   A(11,29,31)           121.2768         estimate D2E/DX2                !
 ! A69   A(30,29,31)           119.8549         estimate D2E/DX2                !
 ! A70   A(26,31,29)           121.2768         estimate D2E/DX2                !
 ! A71   A(26,31,32)           118.8683         estimate D2E/DX2                !
 ! A72   A(29,31,32)           119.8549         estimate D2E/DX2                !
 ! A73   A(16,33,34)           121.4104         estimate D2E/DX2                !
 ! A74   A(16,33,37)           118.5136         estimate D2E/DX2                !
 ! A75   A(34,33,37)           120.076          estimate D2E/DX2                !
 ! A76   A(33,34,35)           120.0543         estimate D2E/DX2                !
 ! A77   A(33,34,36)           121.4504         estimate D2E/DX2                !
 ! A78   A(35,34,36)           118.4953         estimate D2E/DX2                !
 ! A79   A(6,36,34)            118.4587         estimate D2E/DX2                !
 ! A80   A(6,36,38)            118.9316         estimate D2E/DX2                !
 ! A81   A(34,36,38)           122.6098         estimate D2E/DX2                !
 ! A82   A(36,38,39)           118.8683         estimate D2E/DX2                !
 ! A83   A(36,38,44)           121.2768         estimate D2E/DX2                !
 ! A84   A(39,38,44)           119.8549         estimate D2E/DX2                !
 ! A85   A(1,40,42)            118.4587         estimate D2E/DX2                !
 ! A86   A(1,40,44)            118.9316         estimate D2E/DX2                !
 ! A87   A(42,40,44)           122.6098         estimate D2E/DX2                !
 ! A88   A(20,41,42)           121.4104         estimate D2E/DX2                !
 ! A89   A(20,41,46)           118.5136         estimate D2E/DX2                !
 ! A90   A(42,41,46)           120.076          estimate D2E/DX2                !
 ! A91   A(40,42,41)           121.4504         estimate D2E/DX2                !
 ! A92   A(40,42,43)           118.4953         estimate D2E/DX2                !
 ! A93   A(41,42,43)           120.0543         estimate D2E/DX2                !
 ! A94   A(38,44,40)           121.2768         estimate D2E/DX2                !
 ! A95   A(38,44,45)           119.8549         estimate D2E/DX2                !
 ! A96   A(40,44,45)           118.8683         estimate D2E/DX2                !
 ! D1    D(6,1,2,3)              0.0            estimate D2E/DX2                !
 ! D2    D(6,1,2,20)           180.0            estimate D2E/DX2                !
 ! D3    D(40,1,2,3)           180.0            estimate D2E/DX2                !
 ! D4    D(40,1,2,20)            0.0            estimate D2E/DX2                !
 ! D5    D(2,1,6,5)              0.0            estimate D2E/DX2                !
 ! D6    D(2,1,6,36)           180.0            estimate D2E/DX2                !
 ! D7    D(40,1,6,5)           180.0            estimate D2E/DX2                !
 ! D8    D(40,1,6,36)            0.0            estimate D2E/DX2                !
 ! D9    D(2,1,40,42)            0.0            estimate D2E/DX2                !
 ! D10   D(2,1,40,44)          180.0            estimate D2E/DX2                !
 ! D11   D(6,1,40,42)          180.0            estimate D2E/DX2                !
 ! D12   D(6,1,40,44)            0.0            estimate D2E/DX2                !
 ! D13   D(1,2,3,4)              0.0            estimate D2E/DX2                !
 ! D14   D(1,2,3,7)            180.0            estimate D2E/DX2                !
 ! D15   D(20,2,3,4)           180.0            estimate D2E/DX2                !
 ! D16   D(20,2,3,7)             0.0            estimate D2E/DX2                !
 ! D17   D(1,2,20,21)          180.0            estimate D2E/DX2                !
 ! D18   D(1,2,20,41)            0.0            estimate D2E/DX2                !
 ! D19   D(3,2,20,21)            0.0            estimate D2E/DX2                !
 ! D20   D(3,2,20,41)          180.0            estimate D2E/DX2                !
 ! D21   D(2,3,4,5)              0.0            estimate D2E/DX2                !
 ! D22   D(2,3,4,8)            180.0            estimate D2E/DX2                !
 ! D23   D(7,3,4,5)            180.0            estimate D2E/DX2                !
 ! D24   D(7,3,4,8)              0.0            estimate D2E/DX2                !
 ! D25   D(2,3,7,10)           180.0            estimate D2E/DX2                !
 ! D26   D(2,3,7,22)             0.0            estimate D2E/DX2                !
 ! D27   D(4,3,7,10)             0.0            estimate D2E/DX2                !
 ! D28   D(4,3,7,22)           180.0            estimate D2E/DX2                !
 ! D29   D(3,4,5,6)              0.0            estimate D2E/DX2                !
 ! D30   D(3,4,5,16)           180.0            estimate D2E/DX2                !
 ! D31   D(8,4,5,6)            180.0            estimate D2E/DX2                !
 ! D32   D(8,4,5,16)             0.0            estimate D2E/DX2                !
 ! D33   D(3,4,8,9)              0.0            estimate D2E/DX2                !
 ! D34   D(3,4,8,14)           180.0            estimate D2E/DX2                !
 ! D35   D(5,4,8,9)            180.0            estimate D2E/DX2                !
 ! D36   D(5,4,8,14)             0.0            estimate D2E/DX2                !
 ! D37   D(4,5,6,1)              0.0            estimate D2E/DX2                !
 ! D38   D(4,5,6,36)           180.0            estimate D2E/DX2                !
 ! D39   D(16,5,6,1)           180.0            estimate D2E/DX2                !
 ! D40   D(16,5,6,36)            0.0            estimate D2E/DX2                !
 ! D41   D(4,5,16,15)            0.0            estimate D2E/DX2                !
 ! D42   D(4,5,16,33)          180.0            estimate D2E/DX2                !
 ! D43   D(6,5,16,15)          180.0            estimate D2E/DX2                !
 ! D44   D(6,5,16,33)            0.0            estimate D2E/DX2                !
 ! D45   D(1,6,36,34)          180.0            estimate D2E/DX2                !
 ! D46   D(1,6,36,38)            0.0            estimate D2E/DX2                !
 ! D47   D(5,6,36,34)            0.0            estimate D2E/DX2                !
 ! D48   D(5,6,36,38)          180.0            estimate D2E/DX2                !
 ! D49   D(3,7,10,9)             0.0            estimate D2E/DX2                !
 ! D50   D(3,7,10,26)          180.0            estimate D2E/DX2                !
 ! D51   D(22,7,10,9)          180.0            estimate D2E/DX2                !
 ! D52   D(22,7,10,26)           0.0            estimate D2E/DX2                !
 ! D53   D(3,7,22,21)            0.0            estimate D2E/DX2                !
 ! D54   D(3,7,22,24)          180.0            estimate D2E/DX2                !
 ! D55   D(10,7,22,21)         180.0            estimate D2E/DX2                !
 ! D56   D(10,7,22,24)           0.0            estimate D2E/DX2                !
 ! D57   D(4,8,9,10)             0.0            estimate D2E/DX2                !
 ! D58   D(4,8,9,11)           180.0            estimate D2E/DX2                !
 ! D59   D(14,8,9,10)          180.0            estimate D2E/DX2                !
 ! D60   D(14,8,9,11)            0.0            estimate D2E/DX2                !
 ! D61   D(4,8,14,13)          180.0            estimate D2E/DX2                !
 ! D62   D(4,8,14,15)            0.0            estimate D2E/DX2                !
 ! D63   D(9,8,14,13)            0.0            estimate D2E/DX2                !
 ! D64   D(9,8,14,15)          180.0            estimate D2E/DX2                !
 ! D65   D(8,9,10,7)             0.0            estimate D2E/DX2                !
 ! D66   D(8,9,10,26)          180.0            estimate D2E/DX2                !
 ! D67   D(11,9,10,7)          180.0            estimate D2E/DX2                !
 ! D68   D(11,9,10,26)           0.0            estimate D2E/DX2                !
 ! D69   D(8,9,11,12)            0.0            estimate D2E/DX2                !
 ! D70   D(8,9,11,29)          180.0            estimate D2E/DX2                !
 ! D71   D(10,9,11,12)         180.0            estimate D2E/DX2                !
 ! D72   D(10,9,11,29)           0.0            estimate D2E/DX2                !
 ! D73   D(7,10,26,25)           0.0            estimate D2E/DX2                !
 ! D74   D(7,10,26,31)         180.0            estimate D2E/DX2                !
 ! D75   D(9,10,26,25)         180.0            estimate D2E/DX2                !
 ! D76   D(9,10,26,31)           0.0            estimate D2E/DX2                !
 ! D77   D(9,11,12,13)           0.0            estimate D2E/DX2                !
 ! D78   D(9,11,12,18)         180.0            estimate D2E/DX2                !
 ! D79   D(29,11,12,13)        180.0            estimate D2E/DX2                !
 ! D80   D(29,11,12,18)          0.0            estimate D2E/DX2                !
 ! D81   D(9,11,29,30)         180.0            estimate D2E/DX2                !
 ! D82   D(9,11,29,31)           0.0            estimate D2E/DX2                !
 ! D83   D(12,11,29,30)          0.0            estimate D2E/DX2                !
 ! D84   D(12,11,29,31)        180.0            estimate D2E/DX2                !
 ! D85   D(11,12,13,14)          0.0            estimate D2E/DX2                !
 ! D86   D(11,12,13,19)        180.0            estimate D2E/DX2                !
 ! D87   D(18,12,13,14)        180.0            estimate D2E/DX2                !
 ! D88   D(18,12,13,19)          0.0            estimate D2E/DX2                !
 ! D89   D(12,13,14,8)           0.0            estimate D2E/DX2                !
 ! D90   D(12,13,14,15)        180.0            estimate D2E/DX2                !
 ! D91   D(19,13,14,8)         180.0            estimate D2E/DX2                !
 ! D92   D(19,13,14,15)          0.0            estimate D2E/DX2                !
 ! D93   D(8,14,15,16)           0.0            estimate D2E/DX2                !
 ! D94   D(8,14,15,17)         180.0            estimate D2E/DX2                !
 ! D95   D(13,14,15,16)        180.0            estimate D2E/DX2                !
 ! D96   D(13,14,15,17)          0.0            estimate D2E/DX2                !
 ! D97   D(14,15,16,5)           0.0            estimate D2E/DX2                !
 ! D98   D(14,15,16,33)        180.0            estimate D2E/DX2                !
 ! D99   D(17,15,16,5)         180.0            estimate D2E/DX2                !
 ! D100  D(17,15,16,33)          0.0            estimate D2E/DX2                !
 ! D101  D(5,16,33,34)           0.0            estimate D2E/DX2                !
 ! D102  D(5,16,33,37)         180.0            estimate D2E/DX2                !
 ! D103  D(15,16,33,34)        180.0            estimate D2E/DX2                !
 ! D104  D(15,16,33,37)          0.0            estimate D2E/DX2                !
 ! D105  D(2,20,21,22)           0.0            estimate D2E/DX2                !
 ! D106  D(2,20,21,23)         180.0            estimate D2E/DX2                !
 ! D107  D(41,20,21,22)        180.0            estimate D2E/DX2                !
 ! D108  D(41,20,21,23)          0.0            estimate D2E/DX2                !
 ! D109  D(2,20,41,42)           0.0            estimate D2E/DX2                !
 ! D110  D(2,20,41,46)         180.0            estimate D2E/DX2                !
 ! D111  D(21,20,41,42)        180.0            estimate D2E/DX2                !
 ! D112  D(21,20,41,46)          0.0            estimate D2E/DX2                !
 ! D113  D(20,21,22,7)           0.0            estimate D2E/DX2                !
 ! D114  D(20,21,22,24)        180.0            estimate D2E/DX2                !
 ! D115  D(23,21,22,7)         180.0            estimate D2E/DX2                !
 ! D116  D(23,21,22,24)          0.0            estimate D2E/DX2                !
 ! D117  D(7,22,24,25)           0.0            estimate D2E/DX2                !
 ! D118  D(7,22,24,27)         180.0            estimate D2E/DX2                !
 ! D119  D(21,22,24,25)        180.0            estimate D2E/DX2                !
 ! D120  D(21,22,24,27)          0.0            estimate D2E/DX2                !
 ! D121  D(22,24,25,26)          0.0            estimate D2E/DX2                !
 ! D122  D(22,24,25,28)        180.0            estimate D2E/DX2                !
 ! D123  D(27,24,25,26)        180.0            estimate D2E/DX2                !
 ! D124  D(27,24,25,28)          0.0            estimate D2E/DX2                !
 ! D125  D(24,25,26,10)          0.0            estimate D2E/DX2                !
 ! D126  D(24,25,26,31)        180.0            estimate D2E/DX2                !
 ! D127  D(28,25,26,10)        180.0            estimate D2E/DX2                !
 ! D128  D(28,25,26,31)          0.0            estimate D2E/DX2                !
 ! D129  D(10,26,31,29)          0.0            estimate D2E/DX2                !
 ! D130  D(10,26,31,32)        180.0            estimate D2E/DX2                !
 ! D131  D(25,26,31,29)        180.0            estimate D2E/DX2                !
 ! D132  D(25,26,31,32)          0.0            estimate D2E/DX2                !
 ! D133  D(11,29,31,26)          0.0            estimate D2E/DX2                !
 ! D134  D(11,29,31,32)        180.0            estimate D2E/DX2                !
 ! D135  D(30,29,31,26)        180.0            estimate D2E/DX2                !
 ! D136  D(30,29,31,32)          0.0            estimate D2E/DX2                !
 ! D137  D(16,33,34,35)        180.0            estimate D2E/DX2                !
 ! D138  D(16,33,34,36)          0.0            estimate D2E/DX2                !
 ! D139  D(37,33,34,35)          0.0            estimate D2E/DX2                !
 ! D140  D(37,33,34,36)        180.0            estimate D2E/DX2                !
 ! D141  D(33,34,36,6)           0.0            estimate D2E/DX2                !
 ! D142  D(33,34,36,38)        180.0            estimate D2E/DX2                !
 ! D143  D(35,34,36,6)         180.0            estimate D2E/DX2                !
 ! D144  D(35,34,36,38)          0.0            estimate D2E/DX2                !
 ! D145  D(6,36,38,39)         180.0            estimate D2E/DX2                !
 ! D146  D(6,36,38,44)           0.0            estimate D2E/DX2                !
 ! D147  D(34,36,38,39)          0.0            estimate D2E/DX2                !
 ! D148  D(34,36,38,44)        180.0            estimate D2E/DX2                !
 ! D149  D(36,38,44,40)          0.0            estimate D2E/DX2                !
 ! D150  D(36,38,44,45)        180.0            estimate D2E/DX2                !
 ! D151  D(39,38,44,40)        180.0            estimate D2E/DX2                !
 ! D152  D(39,38,44,45)          0.0            estimate D2E/DX2                !
 ! D153  D(1,40,42,41)           0.0            estimate D2E/DX2                !
 ! D154  D(1,40,42,43)         180.0            estimate D2E/DX2                !
 ! D155  D(44,40,42,41)        180.0            estimate D2E/DX2                !
 ! D156  D(44,40,42,43)          0.0            estimate D2E/DX2                !
 ! D157  D(1,40,44,38)           0.0            estimate D2E/DX2                !
 ! D158  D(1,40,44,45)         180.0            estimate D2E/DX2                !
 ! D159  D(42,40,44,38)        180.0            estimate D2E/DX2                !
 ! D160  D(42,40,44,45)          0.0            estimate D2E/DX2                !
 ! D161  D(20,41,42,40)          0.0            estimate D2E/DX2                !
 ! D162  D(20,41,42,43)        180.0            estimate D2E/DX2                !
 ! D163  D(46,41,42,40)        180.0            estimate D2E/DX2                !
 ! D164  D(46,41,42,43)          0.0            estimate D2E/DX2                !
 --------------------------------------------------------------------------------
 Trust Radius=3.00D-01 FncErr=1.00D-07 GrdErr=1.00D-06 EigMax=2.50D+02 EigMin=1.00D-04
 Number of steps in this run=    276 maximum allowed number of steps=    276.
 GradGradGradGradGradGradGradGradGradGradGradGradGradGradGradGradGradGrad

                          Input orientation:                          
 ---------------------------------------------------------------------
 Center     Atomic      Atomic             Coordinates (Angstroms)
 Number     Number       Type             X           Y           Z
 ---------------------------------------------------------------------
      1          6           0        0.000000    2.451090    0.713610
      2          6           0        0.000000    1.231452    1.418023
      3          6           0        0.000000    0.000000    0.708545
      4          6           0        0.000000    0.000000   -0.708545
      5          6           0        0.000000    1.231452   -1.418023
      6          6           0        0.000000    2.451090   -0.713610
      7          6           0        0.000000   -1.231452    1.418023
      8          6           0        0.000000   -1.231452   -1.418023
      9          6           0        0.000000   -2.451090   -0.713610
     10          6           0        0.000000   -2.451090    0.713610
     11          6           0        0.000000   -3.691992   -1.424042
     12          6           0        0.000000   -3.658867   -2.847556
     13          6           0        0.000000   -2.474912   -3.534351
     14          6           0        0.000000   -1.225152   -2.856571
     15          6           0        0.000000    0.000000   -3.535168
     16          6           0        0.000000    1.225152   -2.856571
     17          1           0        0.000000    0.000000   -4.617405
     18          1           0        0.000000   -4.597217   -3.385569
     19          1           0        0.000000   -2.475693   -4.616008
     20          6           0        0.000000    1.225152    2.856571
     21          6           0        0.000000    0.000000    3.535168
     22          6           0        0.000000   -1.225152    2.856571
     23          1           0        0.000000    0.000000    4.617405
     24          6           0        0.000000   -2.474912    3.534351
     25          6           0        0.000000   -3.658867    2.847556
     26          6           0        0.000000   -3.691992    1.424042
     27          1           0        0.000000   -2.475693    4.616008
     28          1           0        0.000000   -4.597217    3.385569
     29          6           0        0.000000   -4.895022   -0.693256
     30          1           0        0.000000   -5.832963   -1.231614
     31          6           0        0.000000   -4.895022    0.693256
     32          1           0        0.000000   -5.832963    1.231614
     33          6           0        0.000000    2.474912   -3.534351
     34          6           0        0.000000    3.658867   -2.847556
     35          1           0        0.000000    4.597217   -3.385569
     36          6           0        0.000000    3.691992   -1.424042
     37          1           0        0.000000    2.475693   -4.616008
     38          6           0        0.000000    4.895022   -0.693256
     39          1           0        0.000000    5.832963   -1.231614
     40          6           0        0.000000    3.691992    1.424042
     41          6           0        0.000000    2.474912    3.534351
     42          6           0        0.000000    3.658867    2.847556
     43          1           0        0.000000    4.597217    3.385569
     44          6           0        0.000000    4.895022    0.693256
     45          1           0        0.000000    5.832963    1.231614
     46          1           0        0.000000    2.475693    4.616008
 ---------------------------------------------------------------------
                    Distance matrix (angstroms):
                    1          2          3          4          5
     1  C    0.000000
     2  C    1.408445   0.000000
     3  C    2.451095   1.421208   0.000000
     4  C    2.833790   2.457390   1.417091   0.000000
     5  C    2.455887   2.836047   2.457390   1.421208   0.000000
     6  C    1.427220   2.455887   2.833790   2.451095   1.408445
     7  C    3.749308   2.462903   1.421208   2.457390   3.756202
     8  C    4.254994   3.756202   2.457390   1.421208   2.462903
     9  C    5.105715   4.254994   2.833790   2.451095   3.749308
    10  C    4.902180   3.749308   2.451095   2.833790   4.254994
    11  C    6.504384   5.684860   4.263652   3.760683   4.923447
    12  C    7.072021   6.489252   5.102271   4.238240   5.094976
    13  C    6.504665   6.185721   4.911961   3.756377   4.268017
    14  C    5.124544   4.930219   3.769755   2.472855   2.846809
    15  C    4.905095   5.103977   4.243714   2.826623   2.449240
    16  C    3.774800   4.274599   3.769755   2.472855   1.438561
    17  H    5.867500   6.159778   5.325950   3.908859   3.428194
    18  H    8.153644   7.553005   6.155987   5.319855   6.151798
    19  H    7.257962   7.081840   5.871961   4.625723   4.895919
    20  C    2.468847   1.438561   2.472855   3.769755   4.274599
    21  C    3.737517   2.449240   2.826623   4.243714   5.103977
    22  C    4.255237   2.846809   2.472855   3.769755   4.930219
    23  H    4.609496   3.428194   3.908859   5.325950   6.159778
    24  C    5.676449   4.268017   3.756377   4.911961   6.185721
    25  C    6.471886   5.094976   4.238240   5.102271   6.489252
    26  C    6.184025   4.923447   3.760683   4.263652   5.684860
    27  H    6.285053   4.895919   4.625723   5.871961   7.081840
    28  H    7.537771   6.151798   5.319855   6.155987   7.553005
    29  C    7.479615   6.480060   5.091786   4.895046   6.169195
    30  H    8.509373   7.544967   6.147168   5.856369   7.066873
    31  C    7.346140   6.169195   4.895046   5.091786   6.480060
    32  H    8.300232   7.066873   5.856369   6.147168   7.544967
    33  C    4.248028   5.106095   4.911961   3.756377   2.454595
    34  C    3.760403   4.907903   5.102271   4.238240   2.817075
    35  H    4.627000   5.865397   6.155987   5.319855   3.898668
    36  C    2.471718   3.759201   4.263652   3.760683   2.460548
    37  H    5.329675   6.160980   5.871961   4.625723   3.431507
    38  C    2.819943   4.228386   5.091786   4.895046   3.734573
    39  H    3.901405   5.309848   6.147168   5.856369   4.605285
    40  C    1.429878   2.460548   3.760683   4.263652   3.759201
    41  C    2.820841   2.454595   3.756377   4.911961   5.106095
    42  C    2.452030   2.817075   4.238240   5.102271   4.907903
    43  H    3.427131   3.898668   5.319855   6.155987   5.865397
    44  C    2.444017   3.734573   4.895046   5.091786   4.228386
    45  H    3.421314   4.605285   5.856369   6.147168   5.309848
    46  H    3.902475   3.431507   4.625723   5.871961   6.160980
                    6          7          8          9         10
     6  C    0.000000
     7  C    4.254994   0.000000
     8  C    3.749308   2.836047   0.000000
     9  C    4.902180   2.455887   1.408445   0.000000
    10  C    5.105715   1.408445   2.455887   1.427220   0.000000
    11  C    6.184025   3.759201   2.460548   1.429878   2.471718
    12  C    6.471886   4.907903   2.817075   2.452030   3.760403
    13  C    5.676449   5.106095   2.454595   2.820841   4.248028
    14  C    4.255237   4.274599   1.438561   2.468847   3.774800
    15  C    3.737517   5.103977   2.449240   3.737517   4.905095
    16  C    2.468847   4.930219   2.846809   4.255237   5.124544
    17  H    4.609496   6.159778   3.428194   4.609496   5.867500
    18  H    7.537771   5.865397   3.898668   3.427131   4.627000
    19  H    6.285053   6.160980   3.431507   3.902475   5.329675
    20  C    3.774800   2.846809   4.930219   5.124544   4.255237
    21  C    4.905095   2.449240   5.103977   4.905095   3.737517
    22  C    5.124544   1.438561   4.274599   3.774800   2.468847
    23  H    5.867500   3.428194   6.159778   5.867500   4.609496
    24  C    6.504665   2.454595   5.106095   4.248028   2.820841
    25  C    7.072021   2.817075   4.907903   3.760403   2.452030
    26  C    6.504384   2.460548   3.759201   2.471718   1.429878
    27  H    7.257962   3.431507   6.160980   5.329675   3.902475
    28  H    8.153644   3.898668   5.865397   4.627000   3.427131
    29  C    7.346140   4.228386   3.734573   2.444017   2.819943
    30  H    8.300232   5.309848   4.605285   3.421314   3.901405
    31  C    7.479615   3.734573   4.228386   2.819943   2.444017
    32  H    8.509373   4.605285   5.309848   3.901405   3.421314
    33  C    2.820841   6.185721   4.268017   5.676449   6.504665
    34  C    2.452030   6.489252   5.094976   6.471886   7.072021
    35  H    3.427131   7.553005   6.151798   7.537771   8.153644
    36  C    1.429878   5.684860   4.923447   6.184025   6.504384
    37  H    3.902475   7.081840   4.895919   6.285053   7.257962
    38  C    2.444017   6.480060   6.169195   7.346140   7.479615
    39  H    3.421314   7.544967   7.066873   8.300232   8.509373
    40  C    2.471718   4.923447   5.684860   6.504384   6.184025
    41  C    4.248028   4.268017   6.185721   6.504665   5.676449
    42  C    3.760403   5.094976   6.489252   7.072021   6.471886
    43  H    4.627000   6.151798   7.553005   8.153644   7.537771
    44  C    2.819943   6.169195   6.480060   7.479615   7.346140
    45  H    3.901405   7.066873   7.544967   8.509373   8.300232
    46  H    5.329675   4.895919   7.081840   7.257962   6.285053
                   11         12         13         14         15
    11  C    0.000000
    12  C    1.423900   0.000000
    13  C    2.436121   1.368736   0.000000
    14  C    2.852619   2.433732   1.421719   0.000000
    15  C    4.252959   3.722918   2.474912   1.400533   0.000000
    16  C    5.121567   4.884028   3.761630   2.450305   1.400533
    17  H    4.881431   4.064440   2.701517   2.145119   1.082236
    18  H    2.160329   1.081646   2.127514   3.413306   4.599650
    19  H    3.415850   2.127751   1.081657   2.158580   2.701346
    20  C    6.519352   7.509375   7.384738   6.216428   6.508097
    21  C    6.182602   7.357070   7.490213   6.508097   7.070337
    22  C    4.940540   6.201615   6.511972   5.713142   6.508097
    23  H    7.080245   8.313420   8.519173   7.573725   8.152573
    24  C    5.105579   6.490800   7.068702   6.511972   7.490213
    25  C    4.271726   5.695112   6.490800   6.201615   7.357070
    26  C    2.848083   4.271726   5.105579   4.940540   6.182602
    27  H    6.161297   7.556764   8.150359   7.576495   8.518845
    28  H    4.894057   6.303360   7.238057   7.094726   8.308490
    29  C    1.407597   2.483765   3.732124   4.260032   5.660186
    30  H    2.149601   2.708866   4.071744   4.885939   6.271349
    31  C    2.435207   3.750391   4.871303   5.105802   6.468448
    32  H    3.411197   4.622372   5.830174   6.159965   7.532972
    33  C    6.517983   6.172110   4.949824   3.761630   2.474912
    34  C    7.487424   7.317735   6.172110   4.884028   3.722918
    35  H    8.518132   8.273596   7.073694   5.846351   4.599650
    36  C    7.383983   7.487424   6.517983   5.121567   4.252959
    37  H    6.944709   6.384375   5.067393   4.097789   2.701346
    38  C    8.618054   8.821000   7.898591   6.491261   5.660186
    39  H    9.526898   9.628401   8.621101   7.242753   6.271349
    40  C    7.914214   8.501863   7.913050   6.519352   6.182602
    41  C    7.913050   8.851666   8.629444   7.384738   7.490213
    42  C    8.501863   9.272731   8.851666   7.509375   7.357070
    43  H    9.583493  10.344795   9.894458   8.536059   8.308490
    44  C    8.844193   9.257774   8.496387   7.075154   6.468448
    45  H    9.888239  10.331237   9.577850   8.156607   7.532972
    46  H    8.632643   9.661139   9.536081   8.338806   8.518845
                   16         17         18         19         20
    16  C    0.000000
    17  H    2.145119   0.000000
    18  H    5.846351   4.759393   0.000000
    19  H    4.097789   2.475693   2.452518   0.000000
    20  C    5.713142   7.573725   8.536059   8.338806   0.000000
    21  C    6.508097   8.152573   8.308490   8.518845   1.400533
    22  C    6.216428   7.573725   7.094726   7.576495   2.450305
    23  H    7.573725   9.234809   9.229409   9.559548   2.145119
    24  C    7.384738   8.519173   7.238057   8.150359   3.761630
    25  C    7.509375   8.313420   6.303360   7.556764   4.884028
    26  C    6.519352   7.080245   4.894057   6.161297   5.121567
    27  H    8.338806   9.559548   8.278049   9.232016   4.097789
    28  H    8.536059   9.229409   6.771138   8.278049   5.846351
    29  C    6.491261   6.273769   2.708734   4.608811   7.075154
    30  H    7.242753   6.744407   2.483262   4.767114   8.156607
    31  C    7.075154   7.222490   4.089683   5.834504   6.491261
    32  H    8.156607   8.260416   4.779692   6.742844   7.242753
    33  C    1.421719   2.701517   7.073694   5.067393   6.511972
    34  C    2.433732   4.064440   8.273596   6.384375   6.201615
    35  H    3.413306   4.759393   9.194434   7.179139   7.094726
    36  C    2.852619   4.881431   8.518132   6.944709   4.940540
    37  H    2.158580   2.475693   7.179139   4.951385   7.576495
    38  C    4.260032   6.273769   9.866669   8.349576   5.105802
    39  H    4.885939   6.744407  10.650266   8.971503   6.159965
    40  C    4.940540   7.080245   9.583493   8.632643   2.852619
    41  C    6.511972   8.519173   9.894458   9.536081   1.421719
    42  C    6.201615   8.313420  10.344795   9.661139   2.433732
    43  H    7.094726   9.229409  11.418666  10.679480   3.413306
    44  C    5.105802   7.222490  10.331477   9.083816   4.260032
    45  H    6.159965   8.260416  11.406447  10.160140   4.885939
    46  H    7.576495   9.559548  10.679480  10.475988   2.158580
                   21         22         23         24         25
    21  C    0.000000
    22  C    1.400533   0.000000
    23  H    1.082236   2.145119   0.000000
    24  C    2.474912   1.421719   2.701517   0.000000
    25  C    3.722918   2.433732   4.064440   1.368736   0.000000
    26  C    4.252959   2.852619   4.881431   2.436121   1.423900
    27  H    2.701346   2.158580   2.475693   1.081657   2.127751
    28  H    4.599650   3.413306   4.759393   2.127514   1.081646
    29  C    6.468448   5.105802   7.222490   4.871303   3.750391
    30  H    7.532972   6.159965   8.260416   5.830174   4.622372
    31  C    5.660186   4.260032   6.273769   3.732124   2.483765
    32  H    6.271349   4.885939   6.744407   4.071744   2.708866
    33  C    7.490213   7.384738   8.519173   8.629444   8.851666
    34  C    7.357070   7.509375   8.313420   8.851666   9.272731
    35  H    8.308490   8.536059   9.229409   9.894458  10.344795
    36  C    6.182602   6.519352   7.080245   7.913050   8.501863
    37  H    8.518845   8.338806   9.559548   9.536081   9.661139
    38  C    6.468448   7.075154   7.222490   8.496387   9.257774
    39  H    7.532972   8.156607   8.260416   9.577850  10.331237
    40  C    4.252959   5.121567   4.881431   6.517983   7.487424
    41  C    2.474912   3.761630   2.701517   4.949824   6.172110
    42  C    3.722918   4.884028   4.064440   6.172110   7.317735
    43  H    4.599650   5.846351   4.759393   7.073694   8.273596
    44  C    5.660186   6.491261   6.273769   7.898591   8.821000
    45  H    6.271349   7.242753   6.744407   8.621101   9.628401
    46  H    2.701346   4.097789   2.475693   5.067393   6.384375
                   26         27         28         29         30
    26  C    0.000000
    27  H    3.415850   0.000000
    28  H    2.160329   2.452518   0.000000
    29  C    2.435207   5.834504   4.089683   0.000000
    30  H    3.411197   6.742844   4.779692   1.081463   0.000000
    31  C    1.407597   4.608811   2.708734   1.386512   2.141228
    32  H    2.149601   4.767114   2.483262   2.141228   2.463229
    33  C    7.913050   9.536081   9.894458   7.898591   8.621101
    34  C    8.501863   9.661139  10.344795   8.821000   9.628401
    35  H    9.583493  10.679480  11.418666   9.866669  10.650266
    36  C    7.914214   8.632643   9.583493   8.618054   9.526898
    37  H    8.632643  10.475988  10.679480   8.349576   8.971503
    38  C    8.844193   9.083816  10.331477   9.790044  10.741484
    39  H    9.888239  10.160140  11.406447  10.741484  11.665925
    40  C    7.383983   6.944709   8.518132   8.844193   9.888239
    41  C    6.517983   5.067393   7.073694   8.496387   9.577850
    42  C    7.487424   6.384375   8.273596   9.257774  10.331237
    43  H    8.518132   7.179139   9.194434  10.331477  11.406447
    44  C    8.618054   8.349576   9.866669   9.887739  10.899302
    45  H    9.526898   8.971503  10.650266  10.899302  11.923142
    46  H    6.944709   4.951385   7.179139   9.083816  10.160140
                   31         32         33         34         35
    31  C    0.000000
    32  H    1.081463   0.000000
    33  C    8.496387   9.577850   0.000000
    34  C    9.257774  10.331237   1.368736   0.000000
    35  H   10.331477  11.406447   2.127514   1.081646   0.000000
    36  C    8.844193   9.888239   2.436121   1.423900   2.160329
    37  H    9.083816  10.160140   1.081657   2.127751   2.452518
    38  C    9.887739  10.899302   3.732124   2.483765   2.708734
    39  H   10.899302  11.923142   4.071744   2.708866   2.483262
    40  C    8.618054   9.526898   5.105579   4.271726   4.894057
    41  C    7.898591   8.621101   7.068702   6.490800   7.238057
    42  C    8.821000   9.628401   6.490800   5.695112   6.303360
    43  H    9.866669  10.650266   7.238057   6.303360   6.771138
    44  C    9.790044  10.741484   4.871303   3.750391   4.089683
    45  H   10.741484  11.665925   5.830174   4.622372   4.779692
    46  H    8.349576   8.971503   8.150359   7.556764   8.278049
                   36         37         38         39         40
    36  C    0.000000
    37  H    3.415850   0.000000
    38  C    1.407597   4.608811   0.000000
    39  H    2.149601   4.767114   1.081463   0.000000
    40  C    2.848083   6.161297   2.435207   3.411197   0.000000
    41  C    5.105579   8.150359   4.871303   5.830174   2.436121
    42  C    4.271726   7.556764   3.750391   4.622372   1.423900
    43  H    4.894057   8.278049   4.089683   4.779692   2.160329
    44  C    2.435207   5.834504   1.386512   2.141228   1.407597
    45  H    3.411197   6.742844   2.141228   2.463229   2.149601
    46  H    6.161297   9.232016   5.834504   6.742844   3.415850
                   41         42         43         44         45
    41  C    0.000000
    42  C    1.368736   0.000000
    43  H    2.127514   1.081646   0.000000
    44  C    3.732124   2.483765   2.708734   0.000000
    45  H    4.071744   2.708866   2.483262   1.081463   0.000000
    46  H    1.081657   2.127751   2.452518   4.608811   4.767114
                   46
    46  H    0.000000
 Stoichiometry    C32H14
 Framework group  D2H[C2"(HCC.CCH),SG(C28H12)]
 Deg. of freedom    23
 Full point group                 D2H     NOp   8
 Largest Abelian subgroup         D2H     NOp   8
 Largest concise Abelian subgroup D2      NOp   4
                         Standard orientation:                         
 ---------------------------------------------------------------------
 Center     Atomic      Atomic             Coordinates (Angstroms)
 Number     Number       Type             X           Y           Z
 ---------------------------------------------------------------------
      1          6           0        0.000000    2.451090    0.713610
      2          6           0        0.000000    1.231452    1.418023
      3          6           0        0.000000    0.000000    0.708545
      4          6           0        0.000000    0.000000   -0.708545
      5          6           0        0.000000    1.231452   -1.418023
      6          6           0        0.000000    2.451090   -0.713610
      7          6           0       -0.000000   -1.231452    1.418023
      8          6           0       -0.000000   -1.231452   -1.418023
      9          6           0       -0.000000   -2.451090   -0.713610
     10          6           0       -0.000000   -2.451090    0.713610
     11          6           0        0.000000   -3.691992   -1.424042
     12          6           0        0.000000   -3.658867   -2.847556
     13          6           0        0.000000   -2.474912   -3.534351
     14          6           0        0.000000   -1.225152   -2.856571
     15          6           0        0.000000    0.000000   -3.535168
     16          6           0        0.000000    1.225152   -2.856571
     17          1           0        0.000000    0.000000   -4.617405
     18          1           0        0.000000   -4.597217   -3.385569
     19          1           0        0.000000   -2.475693   -4.616008
     20          6           0        0.000000    1.225152    2.856571
     21          6           0       -0.000000    0.000000    3.535168
     22          6           0       -0.000000   -1.225152    2.856571
     23          1           0       -0.000000    0.000000    4.617405
     24          6           0       -0.000000   -2.474912    3.534351
     25          6           0       -0.000000   -3.658867    2.847556
     26          6           0       -0.000000   -3.691992    1.424042
     27          1           0       -0.000000   -2.475693    4.616008
     28          1           0       -0.000000   -4.597217    3.385569
     29          6           0        0.000000   -4.895022   -0.693256
     30          1           0        0.000000   -5.832963   -1.231614
     31          6           0       -0.000000   -4.895022    0.693256
     32          1           0       -0.000000   -5.832963    1.231614
     33          6           0        0.000000    2.474912   -3.534351
     34          6           0        0.000000    3.658867   -2.847556
     35          1           0        0.000000    4.597217   -3.385569
     36          6           0        0.000000    3.691992   -1.424042
     37          1           0        0.000000    2.475693   -4.616008
     38          6           0        0.000000    4.895022   -0.693256
     39          1           0        0.000000    5.832963   -1.231614
     40          6           0        0.000000    3.691992    1.424042
     41          6           0        0.000000    2.474912    3.534351
     42          6           0        0.000000    3.658867    2.847556
     43          1           0        0.000000    4.597217    3.385569
     44          6           0        0.000000    4.895022    0.693256
     45          1           0        0.000000    5.832963    1.231614
     46          1           0        0.000000    2.475693    4.616008
 ---------------------------------------------------------------------
 Rotational constants (GHZ):           0.2389454           0.1477155           0.0912840
 Standard basis: 6-311++G(2d,2p) (5D, 7F)
 There are   207 symmetry adapted cartesian basis functions of AG  symmetry.
 There are    66 symmetry adapted cartesian basis functions of B1G symmetry.
 There are    76 symmetry adapted cartesian basis functions of B2G symmetry.
 There are   185 symmetry adapted cartesian basis functions of B3G symmetry.
 There are    66 symmetry adapted cartesian basis functions of AU  symmetry.
 There are   207 symmetry adapted cartesian basis functions of B1U symmetry.
 There are   185 symmetry adapted cartesian basis functions of B2U symmetry.
 There are    76 symmetry adapted cartesian basis functions of B3U symmetry.
 There are   189 symmetry adapted basis functions of AG  symmetry.
 There are    66 symmetry adapted basis functions of B1G symmetry.
 There are    76 symmetry adapted basis functions of B2G symmetry.
 There are   171 symmetry adapted basis functions of B3G symmetry.
 There are    66 symmetry adapted basis functions of AU  symmetry.
 There are   189 symmetry adapted basis functions of B1U symmetry.
 There are   171 symmetry adapted basis functions of B2U symmetry.
 There are    76 symmetry adapted basis functions of B3U symmetry.
  1004 basis functions,  1512 primitive gaussians,  1068 cartesian basis functions
   103 alpha electrons      103 beta electrons
       nuclear repulsion energy      2860.1314505121 Hartrees.
 NAtoms=   46 NActive=   46 NUniq=   13 SFac= 4.00D+00 NAtFMM=   60 NAOKFM=F Big=F
 Integral buffers will be    131072 words long.
 Regular integral format.
 Two-electron integral symmetry is turned on.
 Nuclear repulsion after empirical dispersion term =     2859.9869357629 Hartrees.
 One-electron integrals computed using PRISM.
 NBasis=  1004 RedAO= T EigKep=  1.05D-06  NBF=   189    66    76   171    66   189   171    76
 NBsUse=   973 1.00D-06 EigRej=  8.77D-07 NBFU=   183    66    76   162    66   179   165    76
 ExpMin= 3.60D-02 ExpMax= 4.56D+03 ExpMxC= 6.82D+02 IAcc=3 IRadAn=         5 AccDes= 0.00D+00
 Harris functional with IExCor=  402 and IRadAn=       5 diagonalized for initial guess.
 HarFok:  IExCor=  402 AccDes= 0.00D+00 IRadAn=         5 IDoV= 1 UseB2=F ITyADJ=14
 ICtDFT=  3500011 ScaDFX=  1.000000  1.000000  1.000000  1.000000
 FoFCou: FMM=F IPFlag=           0 FMFlag=      100000 FMFlg1=           0
         NFxFlg=           0 DoJE=T BraDBF=F KetDBF=T FulRan=T
         wScrn=  0.000000 ICntrl=       500 IOpCl=  0 I1Cent=   200000004 NGrid=           0
         NMat0=    1 NMatS0=      1 NMatT0=    0 NMatD0=    1 NMtDS0=    0 NMtDT0=    0
 Petite list used in FoFCou.
 Initial guess orbital symmetries:
       Occupied  (B1U) (AG) (B3G) (B2U) (B1U) (B3G) (AG) (B2U)
                 (AG) (B2U) (B3G) (B1U) (B1U) (AG) (B3G) (B2U)
                 (B1U) (AG) (B3G) (B1U) (AG) (B2U) (AG) (B1U) (B2U)
                 (AG) (B3G) (B1U) (B2U) (B3G) (AG) (B1U) (AG) (B2U)
                 (B1U) (AG) (B3G) (AG) (B2U) (B1U) (B2U) (AG) (B1U)
                 (B3G) (AG) (B3G) (B2U) (B1U) (AG) (B3G) (B2U)
                 (B1U) (AG) (B2U) (B1U) (B3G) (AG) (B1U) (AG) (B2U)
                 (B3G) (B2U) (AG) (B1U) (B3G) (B2U) (B1U) (AG)
                 (B2U) (B3G) (AG) (B1U) (B2U) (AG) (B3G) (B2U)
                 (AG) (B3G) (B3U) (B1U) (AG) (B2U) (B1G) (B3G)
                 (B2G) (B1U) (B1U) (B2U) (B3U) (AU) (B3G) (AG)
                 (B3U) (B1G) (B2G) (B1G) (B2G) (AU) (B3U) (B3U)
                 (AU) (B1G) (B2G)
       Virtual   (B3U) (AU) (B1G) (B2G) (B2G) (B1G) (B3U) (AU)
                 (B3U) (AU) (B2G) (AG) (B2U) (B1U) (B1G) (B3G)
                 (B2G) (AG) (AG) (B2U) (B1U) (B2U) (AG) (B3G) (B3U)
                 (B1U) (B1U) (B3U) (B2U) (B1G) (B2G) (AG) (AG)
                 (AU) (B3G) (B2U) (B3U) (B3G) (B1U) (AG) (AU) (AG)
                 (B1U) (B2U) (B3U) (AG) (B2U) (B2G) (B3G) (B1U)
                 (B1G) (AG) (B2U) (B1G) (B3G) (B1U) (B1U) (AG)
                 (B2G) (B2U) (B2U) (B1U) (B3G) (AU) (AG) (B3G)
                 (B1U) (AG) (B2U) (B3U) (B1U) (B2G) (B2U) (AG)
                 (B3G) (B3U) (AU) (AG) (B1U) (B3G) (B1U) (B3G)
                 (B1G) (B2U) (B2G) (AG) (AG) (B2U) (B1U) (B3U)
                 (AG) (B3G) (B2U) (B2U) (B2G) (B1U) (B3G) (B1G)
                 (AU) (AG) (B3U) (B1U) (B2U) (B3G) (AG) (B1G) (AG)
                 (B2U) (B3G) (B2G) (B2U) (B1U) (AU) (B1U) (AG)
                 (B3G) (B2U) (B2G) (B1U) (AG) (B2U) (AG) (B1U)
                 (AG) (B3G) (B3U) (B2U) (B3G) (B1U) (B2U) (B3G)
                 (AG) (AU) (B2G) (B1U) (B1U) (B3U) (B3G) (B1G)
                 (AG) (B1U) (AG) (B2U) (B3G) (B1U) (B2U) (B1U)
                 (AG) (B3G) (B2U) (AG) (B3G) (B3G) (B3U) (B3G)
                 (B2U) (B1U) (B2G) (AG) (B1G) (B3G) (B1U) (AU)
                 (AG) (B2U) (B1U) (B1U) (B2U) (AG) (B3G) (B1U)
                 (B2U) (AG) (B3G) (B2U) (AG) (B3U) (B1U) (B3U)
                 (B1G) (B2G) (AU) (AG) (B3G) (B1U) (B1G) (B3U)
                 (B2G) (B3U) (AU) (AG) (B1G) (B2U) (B2U) (AG) (B1G)
                 (B2U) (B3U) (B1U) (B2U) (B2G) (B3G) (B3G) (AG)
                 (B1U) (B3G) (B2G) (AG) (B3G) (B1U) (B1U) (B2U)
                 (AG) (B3U) (B3G) (AG) (AU) (B2U) (B1G) (B1U) (AG)
                 (B2U) (AG) (B3G) (B1U) (B2U) (AU) (B2G) (B3U)
                 (B1G) (B3U) (AU) (B2G) (B1G) (B2G) (B3U) (B1G)
                 (AG) (B2G) (AU) (AG) (B3G) (B2U) (B1U) (B1G) (B1U)
                 (B3G) (B3U) (B1U) (B2U) (AG) (B3U) (B2U) (B1G)
                 (AU) (B1U) (AG) (B3U) (B3G) (B2G) (B3U) (AU) (AU)
                 (B1U) (B2G) (B3U) (AG) (B1G) (B3G) (B2G) (B1U)
                 (B2U) (AG) (B3G) (AG) (AU) (B1G) (B2U) (B1U) (B2G)
                 (AU) (AG) (B1U) (B3G) (B2U) (B2G) (B1G) (B2U)
                 (AG) (B1U) (B2U) (B3G) (B1U) (AG) (B3G) (B2U)
                 (B3U) (AG) (AU) (B1U) (B3G) (AG) (B3G) (B2U) (B1U)
                 (B2U) (AG) (B3G) (B1U) (B2U) (AG) (B3G) (B3G)
                 (B1U) (B1U) (B1G) (B3U) (B2G) (B3U) (B2U) (AG)
                 (AU) (B1G) (B3U) (B2G) (AG) (B3G) (B1U) (B2U)
                 (B1G) (B1U) (B3U) (B3G) (B2U) (AG) (B2G) (AU)
                 (AG) (B2U) (AU) (B2G) (B1U) (B2G) (B1G) (B3U)
                 (B1G) (B3G) (AG) (AU) (B3G) (B2U) (B3U) (AG) (B1U)
                 (AU) (B2U) (AG) (B2G) (B3G) (B1G) (B2U) (AG) (B1U)
                 (B2U) (AG) (B3U) (B2G) (AU) (B1U) (B3G) (B3U)
                 (B2G) (AG) (B2U) (B3G) (B2U) (B1U) (AG) (B3G)
                 (B2U) (B1U) (B3G) (B2U) (AG) (B1G) (B1U) (B2U)
                 (AU) (B1U) (B2G) (AG) (B3G) (B1G) (B3U) (AG) (B2G)
                 (AU) (B1G) (B2U) (AG) (B1U) (B2U) (B1U) (B3G)
                 (B3G) (B2U) (AG) (B1U) (AG) (B3G) (B3U) (B2U)
                 (AG) (B2G) (B1U) (B1U) (AU) (AG) (B3G) (B3U) (B3G)
                 (B1U) (AU) (B1G) (B1U) (AG) (B2U) (B3G) (B2G)
                 (B1U) (B2U) (B3G) (B2U) (AG) (B2U) (B3G) (B2G)
                 (AU) (AG) (B1U) (B2U) (B1U) (B3U) (B3G) (AG) (B3G)
                 (AG) (B2U) (B1U) (B3G) (B1U) (B2U) (B1G) (AG)
                 (B1U) (B3G) (B2G) (AG) (B2U) (B3G) (B1U) (B2U)
                 (AG) (B1U) (AU) (B3G) (B3U) (AG) (B1U) (B2U) (B3G)
                 (B1U) (AG) (B3G) (B2U) (B1U) (B3G) (AG) (B1U)
                 (B2U) (B3G) (B1G) (B1U) (AU) (B2G) (AG) (B2U)
                 (B3G) (AG) (B1U) (B2U) (B3G) (B3G) (AG) (B1U)
                 (B1U) (B2U) (B3G) (B1U) (AG) (B3G) (B1U) (B2G)
                 (AU) (B2U) (B3G) (AG) (B1U) (B2U) (B1U) (AG) (B3G)
                 (B3G) (B2U) (B2U) (B1U) (AG) (B3G) (B2U) (AG)
                 (B1U) (B3U) (B1G) (B3G) (B2G) (AU) (B3U) (AG)
                 (B1U) (B1G) (B3U) (B2G) (B3U) (B1G) (AU) (B2G)
                 (B1U) (B1G) (B3U) (AG) (B2G) (B2U) (B1U) (B3U)
                 (B1G) (B3G) (AU) (AG) (B2U) (B3G) (AU) (B2G) (B3U)
                 (B1G) (B2U) (AG) (B1G) (AG) (B3U) (B3G) (AG) (B1U)
                 (B2U) (AG) (B2U) (B1U) (B3G) (B2U) (AG) (AU) (B1U)
                 (B2G) (B3U) (B1G) (B3G) (AU) (B3U) (B2G) (B1G)
                 (B1U) (AU) (B2U) (B2G) (B3U) (B2U) (AG) (B2G)
                 (AG) (AU) (B2G) (B3G) (B2G) (B2U) (AG) (B3U) (AU)
                 (B3G) (B1U) (B1G) (B1U) (B1G) (B3U) (AG) (AG)
                 (B2U) (B3G) (B2U) (B1G) (B1U) (B3U) (AU) (AG)
                 (B2G) (B3G) (B2U) (B1U) (B3G) (B3U) (B2U) (AG)
                 (B1G) (B1U) (AU) (B3G) (B1U) (AG) (B1G) (B3G)
                 (B2G) (B3U) (AG) (B1G) (B2U) (B2U) (AU) (AG) (B2G)
                 (B1U) (B3U) (AU) (B2U) (B1U) (AG) (B3G) (B1G)
                 (AU) (B1U) (B2U) (B2G) (B3U) (B3G) (AG) (B2G)
                 (AG) (B3U) (B1U) (B1U) (B1G) (B3G) (B2U) (B3U)
                 (B2G) (AU) (AG) (B1G) (AU) (B1U) (AG) (B3G) (B3U)
                 (B1G) (B2U) (B3U) (B2G) (B2U) (B2G) (AU) (B1G)
                 (AG) (B1U) (B3G) (B2G) (B2U) (B3U) (B3G) (B1G)
                 (AU) (AG) (B1U) (AU) (AG) (B2G) (B2U) (B3G) (AU)
                 (B2U) (B2G) (B1U) (B3U) (AG) (B3G) (B1U) (B2G)
                 (B3G) (B1G) (B2U) (AU) (B2U) (AG) (B3U) (B1U)
                 (AG) (B1U) (B3G) (B3G) (B1G) (B1U) (AG) (B2G)
                 (AG) (AU) (B2U) (B1U) (B3G) (AG) (B3G) (B2U) (B1G)
                 (B3U) (AU) (B2G) (B3U) (B1G) (B2U) (B1U) (AG)
                 (B3U) (B2G) (AU) (B2G) (B2U) (B1G) (AU) (B3U)
                 (AG) (B2G) (B1U) (B3G) (B3G) (B2U) (B1U) (AU)
                 (B2G) (AG) (B1U) (B2U) (AG) (B3G) (B2U) (B1U)
                 (B2U) (B3G) (B1U) (AG) (B1U) (B3G) (B1U) (AG)
                 (B2U) (B3G) (B3G) (B1U) (B2U) (AG) (AG) (B3G)
                 (B2U) (B1U) (B3G) (B1U) (AG) (B3G) (B2U) (B2U)
                 (B1U) (AG) (B1U) (B3G) (B2U) (AG) (B3G) (B1U)
                 (B3G) (AG) (AG) (B2U) (B1U) (B3G) (B1U) (B2U)
                 (B3G) (B3G) (B2U) (B1U) (AG) (B2U) (B1U) (AG)
                 (B3G) (B1U) (B3G) (AG) (B2U) (B1U) (AG) (B2U)
                 (AG) (B1U) (B3G) (AG) (B1U) (B3G) (B2U) (B3G)
                 (B1U) (AG) (B1U) (B2U) (B3G) (B1U) (AG) (B3G)
                 (B2U) (B1U) (B2U) (B3G) (B3G) (B1U) (AG) (B2U)
                 (B1U) (B3G) (B2U) (AG) (AG) (B1U) (B2U) (B1U)
                 (AG) (B3G) (B1U) (AG) (B3G) (B2U) (B2U) (B1U)
                 (B3G) (AG) (B3G) (B1U) (AG) (B2U) (AG) (B1U) (B3G)
                 (B2U) (B1U) (B1U) (AG) (B3G)
 The electronic state of the initial guess is 1-AG.
 Requested convergence on RMS density matrix=1.00D-08 within 128 cycles.
 Requested convergence on MAX density matrix=1.00D-06.
 Requested convergence on             energy=1.00D-06.
 No special actions if energy rises.
 SCF Done:  E(RB3LYP) =  -1228.45992078     A.U. after   13 cycles
            NFock= 13  Conv=0.33D-08     -V/T= 2.0045
 DoSCS=F DFT=T ScalE2(SS,OS)=  1.000000  1.000000
 ExpMin= 3.60D-02 ExpMax= 4.56D+03 ExpMxC= 6.82D+02 IAcc=3 IRadAn=         5 AccDes= 0.00D+00
 HarFok:  IExCor=  205 AccDes= 0.00D+00 IRadAn=         5 IDoV=-2 UseB2=F ITyADJ=14
 ICtDFT= 12500011 ScaDFX=  1.000000  1.000000  1.000000  1.000000
 GSVD:  LWork=       -1280 too small for GESVD, short by        5600 words or        5600 for optimal perf.
 Range of M.O.s used for correlation:    33   973
 NBasis=  1004 NAE=   103 NBE=   103 NFC=    32 NFV=     0
 NROrb=    941 NOA=    71 NOB=    71 NVA=   870 NVB=   870

 **** Warning!!: The largest alpha MO coefficient is  0.13336538D+03

 Orbital symmetries:
       Occupied  (AG) (B1U) (B3G) (B2U) (AG) (B1U) (B2U) (AG) (B3G)
                 (B1U) (B2U) (AG) (B3G) (B1U) (B2U) (AG) (B3G)
                 (B1U) (B1U) (B3G) (AG) (B2U) (AG) (B2U) (B1U)
                 (AG) (B3G) (B1U) (B1U) (AG) (B3G) (B2U) (AG) (B2U)
                 (B1U) (AG) (B3G) (AG) (B2U) (B1U) (B2U) (AG) (B1U)
                 (B3G) (AG) (B3G) (B2U) (B1U) (AG) (B1U) (B2U)
                 (B3G) (AG) (B2U) (B1U) (B3G) (AG) (B1U) (B3G)
                 (AG) (B2U) (B2U) (B1U) (AG) (B3G) (B2U) (B1U)
                 (AG) (AG) (B2U) (B3U) (B1U) (B3G) (B2U) (B3G)
                 (AG) (B2U) (B1G) (AG) (B2G) (B3G) (B1U) (AG) (B3G)
                 (B1U) (B3U) (AU) (B2U) (B1U) (B2U) (B3U) (B3G)
                 (B1G) (AG) (B2G) (B1G) (B2G) (AU) (B3U) (B3U)
                 (AU) (B1G) (B2G)
       Virtual   (B3U) (AU) (B1G) (B2G) (B3U) (B1G) (B2G) (AG)
                 (B2U) (B1U) (B3G) (AG) (B2U) (B1U) (AU) (AG) (B3U)
                 (AG) (B3G) (B2G) (B2U) (AU) (B1U) (B1G) (B3U)
                 (B2U) (B1U) (B2G) (B3U) (AG) (B3G) (AG) (B3G)
                 (AU) (B3U) (B1G) (AG) (B2U) (B1U) (B2G) (AG) (B2U)
                 (B3G) (B1U) (B1G) (AG) (B1U) (AU) (B2U) (B1U)
                 (B2U) (B2G) (AG) (B3G) (B3U) (B1G) (B2U) (B2G)
                 (B2U) (B3G) (B1U) (AG) (B3U) (AG) (AU) (B1U) (B3G)
                 (B2G) (B1G) (AG) (B3G) (B3U) (B1U) (AG) (B2U)
                 (B1U) (B3U) (B2G) (B3G) (AU) (B1G) (B3U) (AG)
                 (B2U) (B1U) (AG) (B2U) (AU) (B3G) (AG) (B2U) (B1G)
                 (AG) (B1U) (B2G) (B1U) (B2U) (AU) (B1U) (B3G)
                 (B2U) (B2G) (B1U) (AG) (B2U) (B1U) (AG) (B3G)
                 (AG) (B3G) (B2U) (B3U) (B2U) (B2G) (B3G) (AU)
                 (AG) (B2U) (AG) (B1U) (AG) (B3G) (B1U) (B3G) (B2G)
                 (B1U) (AG) (B3U) (B2U) (B1U) (B1G) (B3G) (B3G)
                 (B2U) (B1U) (AG) (B1U) (AG) (B2U) (B3G) (AG) (B2U)
                 (B1U) (B3G) (B2U) (AG) (B3G) (B1U) (B2G) (AU)
                 (B2U) (AG) (B1U) (B3G) (B2U) (AG) (B3G) (B1U)
                 (B2U) (B1U) (AG) (B3U) (AG) (B3G) (B1G) (B2U)
                 (B1U) (B1U) (B3G) (AG) (B3G) (B2U) (B3U) (B3G)
                 (B1G) (B2G) (B2U) (AG) (AU) (B3U) (B1U) (AG) (B1U)
                 (AG) (B1G) (B3U) (B2U) (B3U) (B1G) (B2G) (AU)
                 (B3G) (AG) (B1U) (B2U) (B1G) (B3G) (B2G) (B3U)
                 (B2U) (B1U) (B2G) (B1U) (B2U) (AG) (AG) (B3G)
                 (B2U) (AG) (B3G) (B1U) (AG) (B3U) (B3G) (AU) (B1G)
                 (B1U) (B2U) (B2U) (AG) (AU) (B3G) (B2G) (AG) (B1U)
                 (B2U) (B3U) (AU) (B3G) (B1U) (B3U) (B2G) (B1G)
                 (B1G) (B2G) (B3U) (B1G) (B2G) (AG) (B2U) (AU)
                 (B3U) (AG) (B1U) (B2U) (AG) (B1G) (B1U) (B3G)
                 (B3U) (AU) (AG) (B1G) (B3U) (B2G) (B2U) (AU) (B3G)
                 (B1U) (B1U) (AU) (B2G) (B3U) (B3G) (B1U) (B3U)
                 (B1G) (AG) (B2G) (B3G) (B2U) (B3G) (B1U) (AG)
                 (AU) (B1U) (B2U) (B2G) (B2U) (AG) (B1G) (AU) (AG)
                 (B1U) (B1G) (AG) (B2G) (B3G) (B1U) (B3G) (B2U)
                 (AG) (B2U) (B1U) (B3G) (B2U) (B3G) (AG) (B1U)
                 (B2U) (B3U) (B3G) (AG) (B1U) (AU) (B3G) (AG) (B2U)
                 (B2U) (B1U) (B3G) (AG) (B1U) (B3G) (B3U) (B2G)
                 (B1U) (B1G) (B3U) (B2U) (AU) (B1G) (B3U) (B2G)
                 (AG) (B3G) (AG) (B1U) (B2U) (B1G) (B3U) (B1U)
                 (B2G) (B3G) (B2U) (AG) (AU) (B2U) (AG) (AU) (B2G)
                 (B1G) (B3U) (B1U) (B2G) (B3G) (AG) (AU) (B1G)
                 (B2U) (AG) (B3G) (B3U) (AU) (B1U) (B2U) (B3G)
                 (AG) (AG) (B1U) (B2U) (B2G) (AG) (B1G) (B1U) (B2U)
                 (B2G) (B3U) (AU) (B2G) (B2U) (B3G) (B3G) (AG)
                 (B3U) (B2U) (B3G) (B1U) (B1U) (B3G) (B1U) (AG)
                 (B2U) (B2U) (B1U) (AG) (B1G) (B3G) (B2U) (AG)
                 (AU) (B2G) (B3U) (AG) (B2G) (B1G) (B1U) (AG) (B2U)
                 (B1G) (AU) (B2U) (B3G) (B3G) (B1U) (AG) (B2U)
                 (AG) (B3G) (B1U) (B2U) (AG) (B3U) (B2G) (B1U)
                 (B1U) (B3G) (AU) (AG) (B3G) (B1U) (AG) (B3U) (B1U)
                 (B2U) (B1G) (AU) (B3G) (B1U) (B2U) (B3G) (B2G)
                 (B2U) (AG) (B2U) (AU) (B1U) (B2G) (B3G) (B3G)
                 (AG) (AG) (B3U) (B2U) (B1U) (B3G) (B2U) (AG) (B3G)
                 (B1U) (B1G) (B2G) (B1U) (B2U) (AG) (B3G) (B1U)
                 (AG) (B1U) (B3G) (B2U) (AU) (B3G) (B1U) (B2U)
                 (AG) (B3U) (B1U) (B3G) (AG) (B2U) (B3G) (B1U)
                 (AG) (B1U) (B2U) (B3G) (AG) (B1U) (B3G) (B2U)
                 (B1G) (B1U) (AU) (B2G) (AG) (B3G) (B2U) (AG) (B1U)
                 (B3G) (B1U) (B2U) (AG) (B1U) (B3G) (B2U) (B1U)
                 (B3G) (B3G) (B2G) (AG) (AU) (B1U) (B2U) (B3G)
                 (B1U) (AG) (B1U) (B3G) (B2U) (AG) (B2U) (B3G)
                 (B1U) (B2U) (AG) (B3G) (B2U) (AG) (B1U) (B3G)
                 (B3U) (B1G) (AG) (B1U) (B2G) (AU) (B3U) (B1G)
                 (B3U) (B2G) (B3U) (B1G) (B1U) (AU) (B2G) (AG)
                 (B2U) (B1G) (B3U) (B1U) (B3G) (AG) (B2G) (B2U)
                 (B3G) (B3U) (B1G) (AU) (AU) (B2G) (B3U) (B1G)
                 (B2U) (AG) (B1G) (B3U) (AG) (B1U) (AG) (B2U) (AG)
                 (B3G) (B1U) (B2U) (B3G) (B2U) (B3U) (B1G) (B1U)
                 (AG) (AU) (B3G) (B2G) (B1U) (AU) (B2U) (B3U) (B2G)
                 (B1G) (AU) (AG) (B2G) (B3U) (AG) (B2G) (AU) (B2G)
                 (B2U) (B3G) (B2G) (B3U) (B2U) (AG) (B3G) (B1U)
                 (AU) (B1G) (B1U) (B1G) (B3U) (AG) (B3G) (B1G)
                 (B1U) (B2U) (AG) (B3U) (B2U) (AU) (B2G) (AG) (B3G)
                 (B2U) (B1U) (B3U) (B3G) (B1G) (AU) (AG) (B2U)
                 (B1U) (B3G) (B1U) (B2G) (B1G) (B1G) (AG) (B3U)
                 (B3G) (B2U) (AU) (AG) (B3U) (B2G) (B2U) (AU) (B1U)
                 (AG) (B1U) (B2U) (B1G) (AU) (B2G) (B3U) (AG) (B3G)
                 (B2G) (B1U) (AG) (B2U) (B3G) (B3U) (AG) (B1U)
                 (B1G) (B1U) (B3G) (B2G) (B3U) (AU) (B1G) (AU)
                 (AG) (B2U) (B3U) (B1G) (B3U) (B1U) (B3G) (AG)
                 (B2U) (B2G) (B2G) (AU) (B2U) (B1G) (AG) (B2G)
                 (B3U) (B1U) (B1G) (B3G) (AU) (AU) (B2U) (AG) (B3G)
                 (B2G) (B1U) (B2G) (AG) (B2U) (AU) (B3G) (B2U)
                 (B1U) (B3U) (AG) (B2G) (B3G) (B1U) (B3G) (B1G)
                 (B2U) (AU) (B2U) (AG) (B3U) (AG) (B1U) (B1U) (B3G)
                 (B1G) (B3G) (B2G) (AG) (B1U) (AU) (B2U) (AG) (B1G)
                 (B3U) (B3G) (AU) (B1U) (B2G) (AG) (B3U) (B1G)
                 (B2U) (B3G) (B3U) (B2G) (AU) (B2G) (B1G) (B2U)
                 (B3U) (AU) (B1U) (AG) (B2G) (B2U) (AG) (B1U) (AU)
                 (B3G) (B2U) (B2G) (B3G) (AG) (B1U) (B1U) (B2U)
                 (B3G) (AG) (B2U) (B1U) (B2U) (B3G) (B1U) (AG)
                 (B1U) (B3G) (B1U) (AG) (B3G) (B2U) (B3G) (B1U)
                 (B2U) (AG) (AG) (B3G) (B2U) (B3G) (B1U) (B1U)
                 (AG) (B3G) (B2U) (B2U) (B1U) (AG) (B2U) (B3G)
                 (B1U) (B3G) (AG) (B1U) (B3G) (AG) (B1U) (B2U)
                 (AG) (B3G) (B1U) (B3G) (B2U) (B2U) (B3G) (B1U)
                 (B2U) (AG) (B1U) (AG) (B3G) (B1U) (B3G) (AG) (B2U)
                 (B1U) (AG) (B2U) (AG) (B1U) (AG) (B3G) (B1U) (B3G)
                 (B2U) (B1U) (B3G) (AG) (B1U) (B2U) (B3G) (B1U)
                 (AG) (B2U) (B3G) (B1U) (B2U) (B3G) (B3G) (B1U)
                 (AG) (B2U) (B1U) (B3G) (B2U) (AG) (B1U) (AG) (B1U)
                 (B2U) (B3G) (AG) (B1U) (AG) (B3G) (B2U) (B2U)
                 (B1U) (B3G) (AG) (B3G) (B1U) (AG) (B2U) (AG) (B1U)
                 (B2U) (B3G) (B1U) (B1U) (AG) (B3G)
    96 initial guesses have been made.
 Convergence on wavefunction:    0.000001000000000
 Iteration     1 Dimension    96 NMult     0 NNew     96
 CISAX will form    54 AO SS matrices at one time.
 New state      1 was old state      3
 New state      2 was old state      1
 New state      3 was old state      4
 New state      4 was old state      7
 New state      5 was old state      6
 New state      6 was old state      2
 New state      7 was old state      9
 New state      8 was old state      5
 New state      9 was old state     11
 New state     11 was old state      8
 New state     12 was old state     13
 Iteration     2 Dimension   120 NMult    96 NNew     24
 New state      1 was old state      2
 New state      2 was old state      1
 New state      4 was old state      5
 New state      5 was old state      4
 New state      7 was old state      8
 New state      8 was old state      7
 New state      9 was old state     11
 New state     11 was old state      9
 Iteration     3 Dimension   144 NMult   120 NNew     24
 Iteration     4 Dimension   168 NMult   144 NNew     24
 Iteration     5 Dimension   192 NMult   168 NNew     24
 Iteration     6 Dimension   216 NMult   192 NNew     24
 Iteration     7 Dimension   240 NMult   216 NNew     24
 Iteration     8 Dimension   264 NMult   240 NNew     24
 Iteration     9 Dimension   284 NMult   264 NNew     20
 Iteration    10 Dimension   296 NMult   284 NNew     12
 ***********************************************************************
 Excited states from <AA,BB:AA,BB> singles matrix:
 ***********************************************************************
 
 Ground to excited state transition densities written to RWF  633
 Ground to excited state transition electric dipole moments (Au):
       state          X           Y           Z        Dip. S.      Osc.
         1        -0.0000      0.0000      1.5404      2.3727      0.1520
         2         0.0000     -0.0190      0.0000      0.0004      0.0000
         3         0.0000      0.0000      0.0000      0.0000      0.0000
         4        -0.0000      0.0000     -0.0000      0.0000      0.0000
         5        -0.0000     -0.0000      0.0000      0.0000      0.0000
         6         0.0000      3.4664     -0.0000     12.0156      1.0608
         7        -0.0000      0.0000      1.8515      3.4282      0.3181
         8        -0.0000      0.0000      0.0000      0.0000      0.0000
         9        -0.0000      0.0000     -0.0000      0.0000      0.0000
        10        -0.0000      0.0000     -0.0513      0.0026      0.0003
        11        -0.0000      0.0000      0.0000      0.0000      0.0000
        12        -0.0000     -0.0000      0.0000      0.0000      0.0000
 Ground to excited state transition velocity dipole moments (Au):
       state          X           Y           Z        Dip. S.      Osc.
         1         0.0000     -0.0000     -0.1492      0.0223      0.1544
         2        -0.0000      0.0015     -0.0000      0.0000      0.0000
         3        -0.0000      0.0000      0.0000      0.0000      0.0000
         4         0.0000      0.0000     -0.0000      0.0000      0.0000
         5         0.0000      0.0000     -0.0000      0.0000      0.0000
         6        -0.0000     -0.4591      0.0000      0.2108      1.0611
         7         0.0000      0.0000     -0.2592      0.0672      0.3218
         8         0.0000     -0.0000     -0.0000      0.0000      0.0000
         9         0.0000     -0.0000      0.0000      0.0000      0.0000
        10         0.0000     -0.0000      0.0076      0.0001      0.0003
        11         0.0000      0.0000      0.0000      0.0000      0.0000
        12         0.0000      0.0000     -0.0000      0.0000      0.0000
 Ground to excited state transition magnetic dipole moments (Au):
       state          X           Y           Z
         1         0.0000      0.0000      0.0000
[...]
 0805,0.,0.,-0.00000524,0.,0.,0.00012114,0.,0.,-0.00003026,0.,0.,0.0000
 0416,0.,0.,0.00002531,0.,0.,-0.06270542,0.,0.,0.00400458,0.,0.,0.00550
 519,0.,0.,-0.00328575,0.,0.,0.00024669,0.,0.,-0.00023362,0.,0.,0.00001
 599,0.,0.,0.00005302,0.,0.,-0.00000933,0.,0.,-0.00000586,0.,0.,-0.0000
 0742,0.,0.,0.00006833,0.,0.,-0.00000020,0.,0.,0.00003157,0.,0.,0.00011
 448,0.,0.,-0.00002871,0.,0.,0.00028992,0.,0.,-0.00001130,0.,0.,-0.0004
 2315,0.,0.,-0.00071926,0.,0.,0.00629765,0.,0.,0.13045222,0.,-0.0484702
 4,0.01605460,0.,0.06761700,-0.02611154,0.,-0.06255727,0.00500151,0.,0.
 06965272,0.00378923,0.,-0.05339821,0.01796488,0.,0.01557121,0.00765743
 ,0.,0.07101527,-0.02014327,0.,-0.07060927,-0.01337997,0.,0.02967220,-0
 .01260831,0.,-0.03264190,-0.02153432,0.,0.00518028,0.00663522,0.,0.025
 95789,-0.01436482,0.,-0.02296600,0.00795371,0.,0.00182095,0.01614189,0
 .,0.00611094,-0.00109952,0.,0.00716322,-0.01935238,0.,0.00010528,0.000
 10483,0.,-0.00004343,-0.00089865,0.,-0.00056740,-0.00016835,0.,-0.2231
 3791,-0.08160832,0.,-0.06629711,-0.00733858,0.,0.00191012,0.03010259,0
 .,0.00122831,-0.00167878,0.,0.01901877,0.00662211,0.,-0.02449924,-0.00
 427080,0.,-0.00378837,-0.00209839,0.,0.00057341,-0.00030069,0.,0.00017
 063,-0.00088930,0.,0.00173877,0.00868644,0.,-0.00046078,0.00012637,0.,
 0.00195927,0.00172248,0.,0.00026294,0.00005158,0.,-0.02751150,-0.00375
 759,0.,0.03030767,0.01536700,0.,0.00001592,0.00116890,0.,0.00474770,-0
 .01349425,0.,-0.00066447,0.00015437,0.,0.00149834,0.01032378,0.,-0.000
 21276,-0.00007119,0.,-0.00601684,0.06078181,0.,0.66711972,0.,0.0095544
 7,-0.00056535,0.,-0.04541161,-0.02518915,0.,0.01892519,-0.00730223,0.,
 -0.01810427,-0.00327938,0.,0.01066092,-0.00288645,0.,-0.00815399,0.002
 24019,0.,-0.01792025,0.00132976,0.,0.01762061,0.00278507,0.,-0.0089030
 6,0.00208163,0.,0.01000003,0.00395327,0.,0.00128370,-0.00105510,0.,-0.
 00792973,0.00396875,0.,0.00795372,-0.00170366,0.,-0.00469654,-0.002943
 77,0.,0.00271406,0.00062192,0.,-0.00317792,0.00190719,0.,0.00003211,-0
 .00001999,0.,-0.00000571,0.00023571,0.,0.00014203,0.00002627,0.,-0.082
 93586,-0.16449236,0.,0.00593653,0.01738001,0.,0.01024576,-0.00471068,0
 .,0.00151014,0.00083558,0.,-0.00662211,-0.00011363,0.,0.00713456,0.002
 76004,0.,-0.00137318,-0.00131072,0.,-0.00014500,-0.00005130,0.,0.00012
 541,0.00027516,0.,-0.00058565,-0.00084136,0.,0.00005284,0.00000964,0.,
 -0.00002003,-0.00043144,0.,-0.00003555,-0.00000607,0.,0.00375759,-0.00
 059770,0.,-0.00484435,0.00029065,0.,0.00002053,-0.00015999,0.,0.003994
 56,-0.00192613,0.,0.00008703,0.00001204,0.,-0.00003594,-0.00114385,0.,
 0.00007130,-0.00055630,0.,0.03167962,-0.03250845,0.,-0.04198606,0.7202
 5960,0.00923170,0.,0.,-0.00264778,0.,0.,-0.00226591,0.,0.,0.00101996,0
 .,0.,-0.00026877,0.,0.,0.00410978,0.,0.,-0.00002945,0.,0.,0.00005054,0
 .,0.,-0.00016266,0.,0.,0.00029188,0.,0.,0.00003573,0.,0.,0.00001422,0.
 ,0.,-0.00001581,0.,0.,0.00000432,0.,0.,0.00001922,0.,0.,-0.00046050,0.
 ,0.,0.00001341,0.,0.,-0.00000370,0.,0.,-0.00001480,0.,0.,0.00806636,0.
 ,0.,0.00448812,0.,0.,-0.00038813,0.,0.,-0.00013256,0.,0.,-0.00023495,0
 .,0.,0.00003772,0.,0.,0.00003636,0.,0.,-0.00002174,0.,0.,0.00000135,0.
 ,0.,0.00001224,0.,0.,0.00000315,0.,0.,-0.00003981,0.,0.,-0.00000466,0.
 ,0.,0.00011335,0.,0.,-0.00044850,0.,0.,0.00003926,0.,0.,-0.00082520,0.
 ,0.,0.00003796,0.,0.,0.00535279,0.,0.,-0.00009086,0.,0.,-0.06331031,0.
 ,0.,-0.05748837,0.,0.,0.12205533,0.,0.03450872,-0.04437356,0.,-0.05746
 171,0.00142423,0.,0.06495624,-0.00079739,0.,-0.07462380,-0.00464932,0.
 ,0.06072118,-0.01898887,0.,-0.02425238,-0.01594501,0.,-0.07209477,0.01
 623100,0.,0.07615013,0.01437054,0.,-0.03382276,0.01260757,0.,0.0335074
 7,0.02217512,0.,-0.00223589,-0.00652888,0.,-0.02808676,0.01459711,0.,0
 .02595789,-0.00792973,0.,-0.00498609,-0.01707500,0.,-0.00264451,0.0006
 7350,0.,-0.01050275,0.01816563,0.,-0.00014127,-0.00007682,0.,0.0000428
 3,0.00091592,0.,0.00062804,0.00021442,0.,-0.05012891,0.00916423,0.,0.0
 0576717,-0.00464058,0.,0.00431344,-0.01900966,0.,0.00016765,0.00036688
 ,0.,-0.02449925,-0.00713457,0.,0.02488792,0.00987568,0.,0.00412993,-0.
 00034614,0.,-0.00059211,0.00027289,0.,-0.00014750,0.00079549,0.,-0.001
 47781,-0.00663875,0.,0.00038544,-0.00010567,0.,-0.00143993,-0.00248142
 ,0.,-0.00022593,-0.00004523,0.,0.03030767,0.00484436,0.,-0.03250221,-0
 .01646811,0.,0.00000794,-0.00126265,0.,-0.00807365,0.01344063,0.,0.000
 69404,-0.00016484,0.,-0.00433775,-0.00422149,0.,0.00022748,0.00153638,
 0.,-0.09799936,-0.02884854,0.,-0.32364764,0.12956473,0.,0.75857569,0.,
 -0.06240830,-0.01902285,0.,0.04720014,-0.01427728,0.,-0.04151138,0.004
 73888,0.,0.04280051,0.00030824,0.,-0.02881039,0.01041446,0.,0.01353373
 ,-0.00146759,0.,0.04736753,-0.01234605,0.,-0.04151918,-0.00700336,0.,0
 .02239112,-0.00763459,0.,-0.02767734,-0.00755937,0.,-0.00386954,0.0003
 4282,0.,0.01459710,-0.00724933,0.,-0.01436481,0.00396875,0.,0.00490155
 ,0.00679535,0.,-0.00097261,-0.00095173,0.,0.00735546,-0.00906177,0.,-0
 .00006970,0.00004556,0.,-0.00005468,-0.00042477,0.,-0.00027919,-0.0000
 3544,0.,0.01284470,0.02500002,0.,-0.01867470,0.00016253,0.,0.00053200,
 0.01767488,0.,-0.00060107,0.00018788,0.,0.00427080,0.00276003,0.,-0.00
 987568,0.00624503,0.,0.00546340,-0.00709870,0.,0.00025669,-0.00013218,
 0.,0.00020597,-0.00035384,0.,0.00509414,0.00136142,0.,-0.00023249,-0.0
 0003687,0.,0.00090114,0.00396048,0.,0.00014424,0.00003862,0.,-0.015367
 00,0.00029065,0.,0.01646812,0.00547608,0.,0.00000542,0.00058544,0.,-0.
 01151578,-0.00446326,0.,-0.00028681,-0.00005829,0.,0.00991174,0.017961
 97,0.,-0.00016960,0.00020626,0.,0.00482146,-0.26904138,0.,0.07900733,-
 0.18241629,0.,0.00666065,0.62666082,0.00433270,0.,0.,-0.00107935,0.,0.
 ,-0.00054785,0.,0.,-0.00003576,0.,0.,0.00032658,0.,0.,0.00047197,0.,0.
 ,0.00012371,0.,0.,0.00004681,0.,0.,-0.00001981,0.,0.,0.00004958,0.,0.,
 -0.00001446,0.,0.,-0.00000416,0.,0.,0.00000458,0.,0.,-0.00002795,0.,0.
 ,-0.00005274,0.,0.,-0.00013818,0.,0.,0.00007762,0.,0.,0.00000571,0.,0.
 ,-0.00000063,0.,0.,0.00728569,0.,0.,0.00023938,0.,0.,-0.00037981,0.,0.
 ,0.00010701,0.,0.,-0.00000911,0.,0.,0.00000126,0.,0.,0.00000498,0.,0.,
 0.00000725,0.,0.,-0.00001388,0.,0.,-0.00000199,0.,0.,0.00000178,0.,0.,
 -0.00000191,0.,0.,-0.00000004,0.,0.,-0.00002815,0.,0.,0.00003917,0.,0.
 ,0.00001031,0.,0.,-0.00006509,0.,0.,-0.00001075,0.,0.,-0.00002063,0.,0
 .,0.00021929,0.,0.,0.00266231,0.,0.,0.00352501,0.,0.,-0.03220342,0.,0.
 ,0.02249840,0.,0.00121963,0.00051519,0.,0.00004838,0.00037078,0.,0.000
 14425,-0.00015739,0.,-0.00013617,0.00009100,0.,0.00004653,-0.00011656,
 0.,-0.00006693,0.00041292,0.,-0.00018788,0.00010833,0.,0.00009659,-0.0
 0000225,0.,-0.00010791,0.00002578,0.,0.00011240,0.00006850,0.,0.000014
 00,0.00013512,0.,0.00004283,-0.00005468,0.,-0.00004343,-0.00000571,0.,
 0.00011044,-0.00002031,0.,-0.00011301,0.00000223,0.,0.00006863,0.00005
 174,0.,-0.00000049,-0.00000615,0.,-0.00000461,-0.00000336,0.,0.0000005
 4,-0.00000641,0.,-0.00212825,0.00434674,0.,-0.00032492,-0.00113840,0.,
 -0.00050253,0.00017598,0.,-0.00000215,0.00004756,0.,0.00017063,-0.0001
 2541,0.,-0.00014750,-0.00020597,0.,-0.00005045,0.00010743,0.,0.0000075
 7,0.00001220,0.,-0.00002595,-0.00000852,0.,-0.00006871,-0.00002932,0.,
 -0.00000214,-0.00000510,0.,0.00001025,-0.00003021,0.,-0.00000764,0.000
 00470,0.,0.00001591,-0.00002053,0.,0.00000794,-0.00000542,0.,0.0000092
 3,-0.00000619,0.,0.00020034,-0.00001097,0.,-0.00000225,-0.00000537,0.,
 0.00002630,-0.00032904,0.,0.00000545,-0.00004356,0.,0.00237348,0.00100
 118,0.,-0.01953313,-0.01560353,0.,-0.26735171,-0.11942751,0.,0.2838588
 9,0.,0.00165820,-0.00489040,0.,0.00242160,0.00000856,0.,-0.00248081,0.
 00011112,0.,0.00264665,0.00019764,0.,-0.00180021,-0.00003025,0.,-0.000
 87622,0.00043443,0.,0.00251477,-0.00054429,0.,-0.00267209,-0.00046170,
 0.,0.00132201,-0.00047308,0.,-0.00134245,-0.00059903,0.,-0.00011527,0.
 00011757,0.,0.00091592,-0.00042477,0.,-0.00089865,0.00023571,0.,0.0003
 4078,0.00052686,0.,-0.00018664,-0.00014183,0.,0.00048356,-0.00048242,0
 .,-0.00001754,-0.00001022,0.,-0.00000336,-0.00002682,0.,-0.00001922,-0
 .00000684,0.,0.00239700,-0.00181435,0.,0.00066734,0.00056225,0.,-0.000
 13731,0.00041315,0.,-0.00000353,-0.00002246,0.,0.00088930,0.00027516,0
 .,-0.00079549,-0.00035384,0.,0.00004632,-0.00002881,0.,0.00001841,-0.0
 0000895,0.,0.00000852,-0.00002029,0.,0.00007706,0.00015895,0.,-0.00001
 088,0.00000117,0.,-0.00001682,0.00009452,0.,0.00000537,0.00000125,0.,-
 0.00116890,-0.00015999,0.,0.00126265,0.00058544,0.,0.00000619,0.000002
 44,0.,-0.00013481,-0.00027564,0.,-0.00001419,0.00000240,0.,0.00039966,
 0.00035437,0.,0.00000833,-0.00002586,0.,-0.02927426,-0.01186643,0.,0.0
 1655430,0.01194310,0.,-0.12057315,-0.12757883,0.,0.12872919,0.13240562
 ,0.00824588,0.,0.,0.00504698,0.,0.,-0.00075352,0.,0.,0.00042119,0.,0.,
 -0.00107644,0.,0.,-0.00383619,0.,0.,0.00005717,0.,0.,0.00009263,0.,0.,
 -0.00006674,0.,0.,0.00000950,0.,0.,-0.00002219,0.,0.,0.00001182,0.,0.,
 -0.00000540,0.,0.,-0.00001100,0.,0.,0.00017433,0.,0.,0.00009435,0.,0.,
 -0.00004112,0.,0.,0.00000063,0.,0.,0.00000217,0.,0.,-0.00095426,0.,0.,
 -0.00078023,0.,0.,0.00019255,0.,0.,0.00005781,0.,0.,0.00006747,0.,0.,-
 0.00004751,0.,0.,-0.00007099,0.,0.,-0.00000304,0.,0.,-0.00000016,0.,0.
 ,0.00002902,0.,0.,-0.00001185,0.,0.,0.00002611,0.,0.,0.00000468,0.,0.,
 -0.00042303,0.,0.,0.00535440,0.,0.,-0.00002086,0.,0.,0.00670944,0.,0.,
 -0.00052397,0.,0.,-0.05814596,0.,0.,0.00441578,0.,0.,-0.06454742,0.,0.
 ,0.00621233,0.,0.,0.00408615,0.,0.,-0.00323762,0.,0.,0.12807907,0.,-0.
 04960562,-0.00303197,0.,0.00104654,-0.00367327,0.,-0.00619752,-0.00013
 946,0.,0.00765233,0.00130863,0.,-0.00657999,-0.00105937,0.,0.00410605,
 0.01194983,0.,0.00362078,0.00065952,0.,-0.00848614,-0.00148347,0.,0.00
 895280,-0.00089146,0.,-0.00505115,0.00217328,0.,-0.00474150,-0.0057013
 1,0.,-0.00147780,0.00509414,0.,0.00173877,-0.00058565,0.,0.00182372,0.
 00154345,0.,-0.00345789,-0.00026809,0.,0.00501407,0.00174923,0.,-0.000
 02148,-0.00004250,0.,-0.00006871,0.00007706,0.,-0.00001603,-0.00002493
 ,0.,-0.01069637,-0.00195116,0.,0.00609516,-0.00042801,0.,-0.00380763,-
 0.00204112,0.,0.00008826,0.00007808,0.,0.00195927,0.00002003,0.,-0.001
 43994,-0.00090114,0.,0.00524223,0.00011016,0.,-0.00001649,0.00006296,0
 .,0.00001026,0.00001682,0.,-0.00017893,0.00063855,0.,0.00003261,-0.000
 01243,0.,-0.00330219,-0.00076186,0.,0.00001712,-0.00005557,0.,0.001498
 34,0.00003594,0.,-0.00433775,-0.00991174,0.,0.00002630,-0.00039966,0.,
 0.01275899,-0.02348682,0.,-0.00040270,-0.00033010,0.,-0.12772153,-0.02
 301039,0.,0.00411178,0.02952518,0.,-0.23362032,0.07240943,0.,0.0153519
 4,-0.00381795,0.,-0.00766848,0.02291033,0.,0.00091184,-0.00154797,0.,0
 .66185611,0.,0.00335785,0.03098946,0.,-0.00654583,-0.00023103,0.,0.001
 69642,0.00008304,0.,-0.01761217,0.00009748,0.,0.01517580,-0.00362282,0
 .,-0.00072579,-0.01567718,0.,-0.00412000,-0.00137128,0.,0.01538802,0.0
 0403403,0.,-0.01009727,0.00438480,0.,0.00100418,-0.00216709,0.,0.00228
 021,0.00457526,0.,-0.00663873,0.00136142,0.,0.00868643,-0.00084137,0.,
 -0.00587089,-0.00352440,0.,0.00300679,-0.00084593,0.,0.00388670,-0.004
 40622,0.,0.00004041,0.00021417,0.,-0.00002932,0.00015895,0.,0.00021805
 ,0.00009258,0.,0.01537775,0.00310509,0.,-0.00733623,0.00243047,0.,0.00
 343408,0.00150845,0.,-0.00013131,-0.00018499,0.,-0.00172247,-0.0004314
 4,0.,0.00248142,0.00396048,0.,-0.00038050,-0.00655682,0.,0.00000704,-0
 .00005968,0.,0.00003021,0.00009452,0.,0.00063855,0.00346623,0.,-0.0000
 9776,-0.00000246,0.,0.00076186,-0.00365345,0.,-0.00010094,0.00000944,0
 .,-0.01032379,-0.00114385,0.,0.00422150,0.01796197,0.,0.00032904,0.000
 35437,0.,-0.04133363,-0.05370721,0.,-0.00031993,0.00006350,0.,0.023010
 39,-0.37621908,0.,-0.00184709,-0.01162360,0.,0.04505111,-0.12668050,0.
 ,-0.02377004,-0.00323534,0.,0.05127069,-0.04631143,0.,0.00131297,0.001
 02066,0.,0.05495285,0.71166781,0.00381322,0.,0.,0.00074800,0.,0.,0.000
 13300,0.,0.,0.00004378,0.,0.,-0.00051797,0.,0.,-0.00070030,0.,0.,-0.00
 027774,0.,0.,-0.00001705,0.,0.,0.00000758,0.,0.,-0.00005115,0.,0.,0.00
 001362,0.,0.,0.00000260,0.,0.,-0.00000782,0.,0.,-0.00002281,0.,0.,0.00
 007153,0.,0.,0.00020047,0.,0.,-0.00001869,0.,0.,0.00000113,0.,0.,0.000
 00245,0.,0.,0.00011136,0.,0.,0.00001799,0.,0.,-0.00001327,0.,0.,0.0000
 1697,0.,0.,0.00000005,0.,0.,-0.00000384,0.,0.,0.00004420,0.,0.,0.00000
 099,0.,0.,0.00000021,0.,0.,-0.00001069,0.,0.,-0.00000018,0.,0.,0.00000
 601,0.,0.,0.00000376,0.,0.,-0.00071975,0.,0.,-0.00009068,0.,0.,0.00021
 912,0.,0.,0.00838722,0.,0.,-0.00000118,0.,0.,0.00441575,0.,0.,-0.00484
 345,0.,0.,0.00259729,0.,0.,-0.00006343,0.,0.,-0.00279033,0.,0.,0.00031
 819,0.,0.,-0.03466710,0.,0.,0.02350078,0.,-0.00234323,0.00428656,0.,-0
 .00032434,-0.00132559,0.,-0.00078860,0.00039170,0.,0.00081059,0.000088
 52,0.,-0.00060583,-0.00000537,0.,0.00058538,0.00062938,0.,0.00050500,-
 0.00020846,0.,-0.00070965,-0.00014369,0.,0.00039499,-0.00013694,0.,-0.
 00042185,0.00005978,0.,-0.00013038,0.00007375,0.,0.00038544,-0.0002324
 9,0.,-0.00046078,0.00005284,0.,0.00036124,0.00007979,0.,-0.00032972,-0
 .00003816,0.,0.00024259,0.00003599,0.,-0.00000764,-0.00000880,0.,-0.00
 000214,-0.00001088,0.,-0.00000738,-0.00000553,0.,-0.00027453,-0.000043
 27,0.,0.00045067,0.00000630,0.,-0.00026046,0.00005743,0.,-0.00002188,0
 .00002600,0.,0.00026294,0.00003555,0.,-0.00022593,-0.00014424,0.,0.000
 08376,0.00004536,0.,0.00000411,0.00000605,0.,-0.00000764,-0.00000537,0
 .,0.00003261,-0.00009776,0.,-0.00000180,-0.00000429,0.,0.00001712,0.00
 010094,0.,-0.00000473,0.00000258,0.,-0.00021276,-0.00007130,0.,0.00022
 748,0.00016960,0.,0.00000545,-0.00000833,0.,0.00119390,0.00087319,0.,-
 0.00000466,0.00000267,0.,0.00411178,0.00184709,0.,0.00085573,-0.000378
 96,0.,-0.02049463,-0.01582702,0.,0.00053093,0.00032638,0.,0.00082922,-
 0.00141434,0.,0.00033827,0.00119857,0.,-0.26578505,-0.11948535,0.,0.28
 122280,0.,0.00264562,-0.00189811,0.,0.00062279,0.00060412,0.,0.0002359
 8,-0.00015611,0.,-0.00037881,-0.00012002,0.,0.00020565,0.00010748,0.,0
 .00002323,-0.00021466,0.,-0.00004965,0.00003604,0.,0.00030874,0.000073
 33,0.,-0.00032840,-0.00007948,0.,0.00010330,0.00000988,0.,0.00016814,0
 .00014743,0.,-0.00010567,-0.00003687,0.,0.00012637,0.00000964,0.,-0.00
 018833,-0.00003701,0.,0.00019500,0.00002514,0.,-0.00004463,-0.00007528
 ,0.,0.00000774,-0.00000037,0.,-0.00000510,0.00000117,0.,0.00000586,-0.
 00000311,0.,0.00031207,0.00019543,0.,-0.00020368,-0.00001256,0.,0.0001
 3303,0.00005625,0.,0.00000989,-0.00000604,0.,-0.00005158,-0.00000607,0
 .,0.00004523,0.00003862,0.,-0.00009558,-0.00007617,0.,0.00000350,0.000
 00109,0.,-0.00000470,0.00000125,0.,-0.00001243,-0.00000246,0.,-0.00000
 429,-0.00000331,0.,0.00005557,0.00000944,0.,-0.00000258,0.00000572,0.,
 0.00007119,-0.00055630,0.,-0.00153637,0.00020626,0.,0.00004356,-0.0000
 2586,0.,0.00234401,-0.00542094,0.,-0.00014116,-0.00008151,0.,-0.029525
 18,-0.01162360,0.,0.00037896,0.00102423,0.,0.01442151,0.01095003,0.,-0
 .00049638,0.00005122,0.,0.00130237,0.00116675,0.,-0.00045278,-0.000094
 43,0.,-0.11928420,-0.12835576,0.,0.12916642,0.13415688,-0.00064520,0.,
 0.,0.00492404,0.,0.,0.00059265,0.,0.,-0.00029378,0.,0.,0.00010196,0.,0
 .,-0.00068376,0.,0.,0.00022622,0.,0.,-0.00023713,0.,0.,0.00000888,0.,0
 .,0.00003446,0.,0.,-0.00000319,0.,0.,-0.00001468,0.,0.,0.00002539,0.,0
 .,-0.00003033,0.,0.,0.00000817,0.,0.,0.00009185,0.,0.,-0.00002201,0.,0
 .,-0.00000064,0.,0.,0.00001568,0.,0.,0.00290991,0.,0.,-0.00276261,0.,0
 .,-0.00011253,0.,0.,0.00036290,0.,0.,0.00005299,0.,0.,-0.00002164,0.,0
 .,-0.00000324,0.,0.,0.00000914,0.,0.,0.00000708,0.,0.,0.00000160,0.,0.
 ,0.00000264,0.,0.,-0.00000346,0.,0.,0.00000110,0.,0.,-0.00001119,0.,0.
 ,0.00003798,0.,0.,-0.00001069,0.,0.,0.00013755,0.,0.,0.00000912,0.,0.,
 -0.00052378,0.,0.,-0.00000124,0.,0.,0.00792696,0.,0.,-0.03614078,0.,0.
 ,0.00472731,0.,0.,-0.00446598,0.,0.,-0.00014489,0.,0.,0.00014016,0.,0.
 ,0.02377703,0.,-0.00096608,0.00045801,0.,-0.00389350,-0.00097936,0.,-0
 .00091021,-0.00133768,0.,0.00117803,0.00017535,0.,-0.00123583,0.000360
 78,0.,0.00073652,0.00003972,0.,0.00184130,-0.00038916,0.,-0.00169804,-
 0.00048445,0.,0.00081830,-0.00030494,0.,-0.00077407,-0.00041285,0.,0.0
 0006733,0.00006838,0.,0.00062804,-0.00027919,0.,-0.00056740,0.00014203
 ,0.,0.00010286,0.00037269,0.,-0.00004606,-0.00008192,0.,0.00035744,-0.
 00032346,0.,0.00000273,0.00000439,0.,0.00000054,-0.00001922,0.,-0.0000
 1905,-0.00000520,0.,0.00344907,-0.02816165,0.,0.00148772,-0.00150316,0
 .,-0.00009840,0.00080785,0.,-0.00029707,0.00081959,0.,0.00057341,0.000
 14500,0.,-0.00059211,-0.00025669,0.,-0.00008633,0.00006789,0.,-0.00001
 923,0.00000590,0.,0.00000757,-0.00001841,0.,-0.00001603,0.00021805,0.,
 -0.00000738,0.00000586,0.,-0.00001650,-0.00000704,0.,0.00000411,-0.000
 00350,0.,-0.00066447,-0.00008703,0.,0.00069404,0.00028681,0.,-0.000002
 25,0.00001419,0.,-0.00013078,-0.00027624,0.,-0.00000975,0.00000627,0.,
 -0.00040270,0.00031993,0.,-0.00000466,0.00014116,0.,-0.00521015,0.0015
 5457,0.,-0.05927791,-0.00108555,0.,0.00417882,0.02945685,0.,0.00096745
 ,-0.00048193,0.,0.00076594,0.00086870,0.,-0.00002640,-0.00002419,0.,0.
 05911112,0.,-0.00028145,0.00047733,0.,-0.00243737,0.00089337,0.,0.0000
 6357,-0.00073083,0.,0.00021926,0.00016070,0.,-0.00033286,0.00002368,0.
 ,0.00033064,-0.00004188,0.,0.00067977,0.00014369,0.,-0.00051806,-0.000
 23114,0.,0.00030282,-0.00008052,0.,-0.00044474,-0.00001023,0.,-0.00005
 751,-0.00001317,0.,0.00021442,-0.00003544,0.,-0.00016835,0.00002627,0.
 ,0.00010597,0.00009124,0.,-0.00010319,-0.00004327,0.,0.00019277,-0.000
 08288,0.,-0.00000244,-0.00000331,0.,-0.00000641,-0.00000684,0.,-0.0000
 0520,-0.00000662,0.,0.00146227,-0.01289985,0.,0.00188587,0.00077970,0.
 ,-0.00063573,0.00023600,0.,-0.00084095,0.00053537,0.,0.00030069,-0.000
 05130,0.,-0.00027289,-0.00013218,0.,0.00011099,0.00003278,0.,-0.000005
 90,0.00002248,0.,-0.00001220,-0.00000895,0.,-0.00002493,0.00009258,0.,
 -0.00000553,-0.00000311,0.,-0.00006296,-0.00005968,0.,-0.00000605,0.00
 000109,0.,-0.00015437,0.00001204,0.,0.00016484,-0.00005829,0.,0.000005
 37,0.00000240,0.,-0.00017108,0.00005566,0.,-0.00000627,-0.00000662,0.,
 0.00033010,0.00006350,0.,-0.00000267,-0.00008151,0.,0.00286159,0.00097
 822,0.,-0.00055087,-0.33352009,0.,-0.00216466,-0.01182772,0.,0.0003010
 7,0.00088915,0.,-0.00047387,-0.00078125,0.,0.00003368,0.00000865,0.,0.
 00018284,0.35519077\\0.,0.00000984,-0.00000727,0.,-0.00001015,-0.00000
 743,0.,0.,0.00000854,0.,0.,-0.00000854,0.,-0.00001015,0.00000743,0.,0.
 00000984,0.00000727,0.,0.00001015,-0.00000743,0.,0.00001015,0.00000743
 ,0.,-0.00000984,0.00000727,0.,-0.00000984,-0.00000727,0.,0.00000557,0.
 00000654,0.,0.00000531,-0.00000974,0.,-0.00001022,0.00000026,0.,0.0000
 0320,-0.00000051,0.,0.,-0.00000520,0.,-0.00000320,-0.00000051,0.,0.,0.
 00000156,0.,-0.00000095,0.00000195,0.,0.00000195,0.00000039,0.,-0.0000
 0320,0.00000051,0.,0.,0.00000520,0.,0.00000320,0.00000051,0.,0.,-0.000
 00156,0.,-0.00001022,-0.00000026,0.,0.00000531,0.00000974,0.,0.0000055
 7,-0.00000654,0.,0.00000195,-0.00000039,0.,-0.00000095,-0.00000195,0.,
 -0.00000315,-0.00000272,0.,0.00000110,-0.00000053,0.,-0.00000315,0.000
 00272,0.,0.00000110,0.00000053,0.,0.00001022,0.00000026,0.,-0.00000531
 ,-0.00000974,0.,0.00000095,0.00000195,0.,-0.00000557,0.00000654,0.,-0.
 00000195,0.00000039,0.,0.00000315,-0.00000272,0.,-0.00000110,-0.000000
 53,0.,-0.00000557,-0.00000654,0.,0.00001022,-0.00000026,0.,-0.00000531
 ,0.00000974,0.,0.00000095,-0.00000195,0.,0.00000315,0.00000272,0.,-0.0
 0000110,0.00000053,0.,-0.00000195,-0.00000039\\\@


 ACCORDING TO HEN3RY, LIFE IS MUCH LIKE A SEWER........
 YOU GET OUT OF IT JUST WHAT YOU PUT INTO IT...........
                         TOM LEHRER - (THE 3 IS SILENT)
 Job cpu time:       5 days  0 hours 52 minutes 36.0 seconds.
 Elapsed time:       0 days  6 hours 44 minutes 37.4 seconds.
 File lengths (MBytes):  RWF=  13563 Int=      0 D2E=      0 Chk=    508 Scr=      1
 Normal termination of Gaussian 16 at Thu Mar  2 23:52:14 2023.
