 Entering Gaussian System, Link 0=g16
 Input=/home/giogina/Gaussian/ovalene/6th excited/ovalene-excited-6-freq-disp.gjf
 Output=/home/giogina/Gaussian/ovalene/6th excited/ovalene-excited-6-freq-disp.log
 Initial command:
 /opt//g16/l1.exe "/opt/g16/scratch/Gau-2927927.inp" -scrdir="/opt/g16/scratch/"
 Default is to use a total of  12 processors:
                               12 via shared-memory
                                1 via Linda
 Entering Link 1 = /opt//g16/l1.exe PID=   2927930.
  
 Copyright (c) 1988,1990,1992,1993,1995,1998,2003,2009,2016,
            Gaussian, Inc.  All Rights Reserved.
  
 This is part of the Gaussian(R) 16 program.  It is based on
 the Gaussian(R) 09 system (copyright 2009, Gaussian, Inc.),
 the Gaussian(R) 03 system (copyright 2003, Gaussian, Inc.),
 the Gaussian(R) 98 system (copyright 1998, Gaussian, Inc.),
 the Gaussian(R) 94 system (copyright 1995, Gaussian, Inc.),
 the Gaussian 92(TM) system (copyright 1992, Gaussian, Inc.),
 the Gaussian 90(TM) system (copyright 1990, Gaussian, Inc.),
 the Gaussian 88(TM) system (copyright 1988, Gaussian, Inc.),
 the Gaussian 86(TM) system (copyright 1986, Carnegie Mellon
 University), and the Gaussian 82(TM) system (copyright 1983,
 Carnegie Mellon University). Gaussian is a federally registered
 trademark of Gaussian, Inc.
  
 This software contains proprietary and confidential information,
 including trade secrets, belonging to Gaussian, Inc.
  
 This software is provided under written license and may be
 used, copied, transmitted, or stored only in accord with that
 written license.
  
 The following legend is applicable only to US Government
 contracts under FAR:
  
                    RESTRICTED RIGHTS LEGEND
  
 Use, reproduction and disclosure by the US Government is
 subject to restrictions as set forth in subparagraphs (a)
 and (c) of the Commercial Computer Software - Restricted
 Rights clause in FAR 52.227-19.
  
 Gaussian, Inc.
 340 Quinnipiac St., Bldg. 40, Wallingford CT 06492
  
  
 ---------------------------------------------------------------
 Warning -- This program may not be used in any manner that
 competes with the business of Gaussian, Inc. or will provide
 assistance to any competitor of Gaussian, Inc.  The licensee
 of this program is prohibited from giving any competitor of
 Gaussian, Inc. access to this program.  By using this program,
 the user acknowledges that Gaussian, Inc. is engaged in the
 business of creating and licensing software in the field of
 computational chemistry and represents and warrants to the
 licensee that it is not a competitor of Gaussian, Inc. and that
 it will not use this program in any manner prohibited above.
 ---------------------------------------------------------------
  

 Cite this work as:
 Gaussian 16, Revision A.03,
 M. J. Frisch, G. W. Trucks, H. B. Schlegel, G. E. Scuseria, 
 M. A. Robb, J. R. Cheeseman, G. Scalmani, V. Barone, 
 G. A. Petersson, H. Nakatsuji, X. Li, M. Caricato, A. V. Marenich, 
 J. Bloino, B. G. Janesko, R. Gomperts, B. Mennucci, H. P. Hratchian, 
 J. V. Ortiz, A. F. Izmaylov, J. L. Sonnenberg, D. Williams-Young, 
 F. Ding, F. Lipparini, F. Egidi, J. Goings, B. Peng, A. Petrone, 
 T. Henderson, D. Ranasinghe, V. G. Zakrzewski, J. Gao, N. Rega, 
 G. Zheng, W. Liang, M. Hada, M. Ehara, K. Toyota, R. Fukuda, 
 J. Hasegawa, M. Ishida, T. Nakajima, Y. Honda, O. Kitao, H. Nakai, 
 T. Vreven, K. Throssell, J. A. Montgomery, Jr., J. E. Peralta, 
 F. Ogliaro, M. J. Bearpark, J. J. Heyd, E. N. Brothers, K. N. Kudin, 
 V. N. Staroverov, T. A. Keith, R. Kobayashi, J. Normand, 
 K. Raghavachari, A. P. Rendell, J. C. Burant, S. S. Iyengar, 
 J. Tomasi, M. Cossi, J. M. Millam, M. Klene, C. Adamo, R. Cammi, 
 J. W. Ochterski, R. L. Martin, K. Morokuma, O. Farkas, 
 J. B. Foresman, and D. J. Fox, Gaussian, Inc., Wallingford CT, 2016.
 
 ******************************************
 Gaussian 16:  ES64L-G16RevA.03 25-Dec-2016
                13-Mar-2023 
 ******************************************
 %chk=ovalene-excited.chk
 %mem=10GB
 %nprocshared=18
 Will use up to   18 processors via shared memory.
 ----------------------------------------------------------------------
 # freq=(savenormalmodes,hpmodes) td=(nstates=10,root=6) b3lyp/6-311++g
 (2d,2p) geom=connectivity empiricaldispersion=gd3bj
 ----------------------------------------------------------------------
 1/10=4,30=1,38=1,57=2/1,3;
 2/12=2,17=6,18=5,40=1/2;
 3/5=4,6=6,7=1212,11=9,25=1,30=1,71=2,74=-5,124=41,140=1/1,2,3,8;
 4//1;
 5/5=2,38=5,98=1/2;
 8/6=1,10=2,107=6,108=10/1;
 9/8=6,15=3,41=10,42=1,70=2/14;
 10/5=2004,20=4,28=6/2;
 11/6=1,8=1,12=-6,16=1,42=3/1,2,10;
 10/6=3,21=1,28=6/2,14;
 6/7=2,8=2,9=2,10=2/1;
 7/8=11,10=1,12=6,13=8,14=6,25=1,44=2,92=1/1,2,3,16;
 1/10=4,30=1/3;
 99//99;
 ---------------------------------------------------------
 Ovalene excited state optimization + freq with dispersion
 ---------------------------------------------------------
 Symbolic Z-matrix:
 Charge =  0 Multiplicity = 1
 C                     0.        2.45498   0.71366 
 C                     0.        1.22916   1.42048 
 C                     0.        0.        0.71298 
 C                     0.        0.       -0.71298 
 C                     0.        1.22916  -1.42048 
 C                     0.        2.45498  -0.71366 
 C                     0.       -1.22916   1.42048 
 C                     0.       -1.22916  -1.42048 
 C                     0.       -2.45498  -0.71366 
 C                     0.       -2.45498   0.71366 
 C                     0.       -3.69122  -1.42284 
 C                     0.       -3.66057  -2.84798 
 C                     0.       -2.4767   -3.53503 
 C                     0.       -1.22568  -2.8564 
 C                     0.        0.       -3.53763 
 C                     0.        1.22568  -2.8564 
 H                     0.        0.       -4.61977 
 H                     0.       -4.59953  -3.38482 
 H                     0.       -2.47699  -4.61677 
 C                     0.        1.22568   2.8564 
 C                     0.        0.        3.53763 
 C                     0.       -1.22568   2.8564 
 H                     0.        0.        4.61977 
 C                     0.       -2.4767    3.53503 
 C                     0.       -3.66057   2.84798 
 C                     0.       -3.69122   1.42284 
 H                     0.       -2.47699   4.61677 
 H                     0.       -4.59953   3.38482 
 C                     0.       -4.89569  -0.69212 
 H                     0.       -5.83345  -1.23136 
 C                     0.       -4.89569   0.69212 
 H                     0.       -5.83345   1.23136 
 C                     0.        2.4767   -3.53503 
 C                     0.        3.66057  -2.84798 
 H                     0.        4.59953  -3.38482 
 C                     0.        3.69122  -1.42284 
 H                     0.        2.47699  -4.61677 
 C                     0.        4.89569  -0.69212 
 H                     0.        5.83345  -1.23136 
 C                     0.        3.69122   1.42284 
 C                     0.        2.4767    3.53503 
 C                     0.        3.66057   2.84798 
 H                     0.        4.59953   3.38482 
 C                     0.        4.89569   0.69212 
 H                     0.        5.83345   1.23136 
 H                     0.        2.47699   4.61677 
 

 GradGradGradGradGradGradGradGradGradGradGradGradGradGradGradGradGradGrad
 Berny optimization.
 Initialization pass.
 Trust Radius=3.00D-01 FncErr=1.00D-07 GrdErr=1.00D-07 EigMax=2.50D+02 EigMin=1.00D-04
 Number of steps in this run=      2 maximum allowed number of steps=      2.
 GradGradGradGradGradGradGradGradGradGradGradGradGradGradGradGradGradGrad

                          Input orientation:                          
 ---------------------------------------------------------------------
 Center     Atomic      Atomic             Coordinates (Angstroms)
 Number     Number       Type             X           Y           Z
 ---------------------------------------------------------------------
      1          6           0        0.000000    2.454980    0.713659
      2          6           0        0.000000    1.229164    1.420479
      3          6           0        0.000000    0.000000    0.712978
      4          6           0        0.000000    0.000000   -0.712978
      5          6           0        0.000000    1.229164   -1.420479
      6          6           0        0.000000    2.454980   -0.713659
      7          6           0        0.000000   -1.229164    1.420479
      8          6           0        0.000000   -1.229164   -1.420479
      9          6           0        0.000000   -2.454980   -0.713659
     10          6           0        0.000000   -2.454980    0.713659
     11          6           0        0.000000   -3.691222   -1.422840
     12          6           0        0.000000   -3.660566   -2.847981
     13          6           0        0.000000   -2.476695   -3.535033
     14          6           0        0.000000   -1.225679   -2.856401
     15          6           0        0.000000    0.000000   -3.537627
     16          6           0        0.000000    1.225679   -2.856401
     17          1           0        0.000000    0.000000   -4.619766
     18          1           0        0.000000   -4.599530   -3.384824
     19          1           0        0.000000   -2.476994   -4.616770
     20          6           0        0.000000    1.225679    2.856401
     21          6           0        0.000000    0.000000    3.537627
     22          6           0        0.000000   -1.225679    2.856401
     23          1           0        0.000000    0.000000    4.619766
     24          6           0        0.000000   -2.476695    3.535033
     25          6           0        0.000000   -3.660566    2.847981
     26          6           0        0.000000   -3.691222    1.422840
     27          1           0        0.000000   -2.476994    4.616770
     28          1           0        0.000000   -4.599530    3.384824
     29          6           0        0.000000   -4.895686   -0.692115
     30          1           0        0.000000   -5.833451   -1.231362
     31          6           0        0.000000   -4.895686    0.692115
     32          1           0        0.000000   -5.833451    1.231362
     33          6           0        0.000000    2.476695   -3.535033
     34          6           0        0.000000    3.660566   -2.847981
     35          1           0        0.000000    4.599530   -3.384824
     36          6           0        0.000000    3.691222   -1.422840
     37          1           0        0.000000    2.476994   -4.616770
     38          6           0        0.000000    4.895686   -0.692115
     39          1           0        0.000000    5.833451   -1.231362
     40          6           0        0.000000    3.691222    1.422840
     41          6           0        0.000000    2.476695    3.535033
     42          6           0        0.000000    3.660566    2.847981
     43          1           0        0.000000    4.599530    3.384824
     44          6           0        0.000000    4.895686    0.692115
     45          1           0        0.000000    5.833451    1.231362
     46          1           0        0.000000    2.476994    4.616770
 ---------------------------------------------------------------------
                    Distance matrix (angstroms):
                    1          2          3          4          5
     1  C    0.000000
     2  C    1.414998   0.000000
     3  C    2.454980   1.418239   0.000000
     4  C    2.839405   2.462211   1.425956   0.000000
     5  C    2.461132   2.840958   2.462211   1.418239   0.000000
     6  C    1.427318   2.461132   2.839405   2.454980   1.414998
     7  C    3.751335   2.458328   1.418239   2.462211   3.756916
     8  C    4.257636   3.756916   2.462211   1.418239   2.458328
     9  C    5.113213   4.257636   2.839405   2.454980   3.751335
    10  C    4.909960   3.751335   2.454980   2.839405   4.257636
    11  C    6.506952   5.682839   4.264603   3.758859   4.920387
    12  C    7.077089   6.490702   5.106875   4.237686   5.093842
    13  C    6.509439   6.187931   4.917277   3.754732   4.266700
    14  C    5.127629   4.931324   3.773958   2.469120   2.843963
    15  C    4.909212   5.108195   4.250605   2.824649   2.448093
    16  C    3.775779   4.276881   3.773958   2.469120   1.435926
    17  H    5.871316   6.164041   5.332744   3.906788   3.427285
    18  H    8.158656   7.554112   6.160167   5.319252   6.150799
    19  H    7.262082   7.084065   5.877220   4.623320   4.894066
    20  C    2.470329   1.435926   2.469120   3.773958   4.276881
    21  C    3.741888   2.448093   2.824649   4.250605   5.108195
    22  C    4.258943   2.843963   2.469120   3.773958   4.931324
    23  H    4.613523   3.427285   3.906788   5.332744   6.164041
    24  C    5.681687   4.266700   3.754732   4.917277   6.187931
    25  C    6.477286   5.093842   4.237686   5.106875   6.490702
    26  C    6.186981   4.920387   3.758859   4.264603   5.682839
    27  H    6.289566   4.894066   4.623320   5.877220   7.084065
    28  H    7.543291   6.150799   5.319252   6.160167   7.554112
    29  C    7.483882   6.478954   5.093332   4.895730   6.168006
    30  H    8.513589   7.544057   6.148952   5.856439   7.065147
    31  C    7.350698   6.168006   4.895730   5.093332   6.478954
    32  H    8.304583   7.065147   5.856439   6.148952   7.544057
    33  C    4.248747   5.110130   4.917277   3.754732   2.455132
    34  C    3.760149   4.912379   5.106875   4.237686   2.819482
    35  H    4.625652   5.869438   6.160167   5.319252   3.901028
    36  C    2.468385   3.761142   4.264603   3.758859   2.462059
    37  H    5.330474   6.164856   5.877220   4.623320   3.431232
    38  C    2.816602   4.231600   5.093332   4.895730   3.738168
    39  H    3.898355   5.313353   6.148952   5.856439   4.608169
    40  C    1.425213   2.462059   3.758859   4.264603   3.761142
    41  C    2.821458   2.455132   3.754732   4.917277   5.110130
    42  C    2.451279   2.819482   4.237686   5.106875   4.912379
    43  H    3.425524   3.901028   5.319252   6.160167   5.869438
    44  C    2.440801   3.738168   4.895730   5.093332   4.231600
    45  H    3.417906   4.608169   5.856439   6.148952   5.313353
    46  H    3.903173   3.431232   4.623320   5.877220   6.164856
                    6          7          8          9         10
     6  C    0.000000
     7  C    4.257636   0.000000
     8  C    3.751335   2.840958   0.000000
     9  C    4.909960   2.461132   1.414998   0.000000
    10  C    5.113213   1.414998   2.461132   1.427318   0.000000
    11  C    6.186981   3.761142   2.462059   1.425213   2.468385
    12  C    6.477286   4.912379   2.819482   2.451279   3.760149
    13  C    5.681687   5.110130   2.455132   2.821458   4.248747
    14  C    4.258943   4.276881   1.435926   2.470329   3.775779
    15  C    3.741888   5.108195   2.448093   3.741888   4.909212
    16  C    2.470329   4.931324   2.843963   4.258943   5.127629
    17  H    4.613523   6.164041   3.427285   4.613523   5.871316
    18  H    7.543291   5.869438   3.901028   3.425524   4.625652
    19  H    6.289566   6.164856   3.431232   3.903173   5.330474
    20  C    3.775779   2.843963   4.931324   5.127629   4.258943
    21  C    4.909212   2.448093   5.108195   4.909212   3.741888
    22  C    5.127629   1.435926   4.276881   3.775779   2.470329
    23  H    5.871316   3.427285   6.164041   5.871316   4.613523
    24  C    6.509439   2.455132   5.110130   4.248747   2.821458
    25  C    7.077089   2.819482   4.912379   3.760149   2.451279
    26  C    6.506952   2.462059   3.761142   2.468385   1.425213
    27  H    7.262082   3.431232   6.164856   5.330474   3.903173
    28  H    8.158656   3.901028   5.869438   4.625652   3.425524
    29  C    7.350698   4.231600   3.738168   2.440801   2.816602
    30  H    8.304583   5.313353   4.608169   3.417906   3.898355
    31  C    7.483882   3.738168   4.231600   2.816602   2.440801
    32  H    8.513589   4.608169   5.313353   3.898355   3.417906
    33  C    2.821458   6.187931   4.266700   5.681687   6.509439
    34  C    2.451279   6.490702   5.093842   6.477286   7.077089
    35  H    3.425524   7.554112   6.150799   7.543291   8.158656
    36  C    1.425213   5.682839   4.920387   6.186981   6.506952
    37  H    3.903173   7.084065   4.894066   6.289566   7.262082
    38  C    2.440801   6.478954   6.168006   7.350698   7.483882
    39  H    3.417906   7.544057   7.065147   8.304583   8.513589
    40  C    2.468385   4.920387   5.682839   6.506952   6.186981
    41  C    4.248747   4.266700   6.187931   6.509439   5.681687
    42  C    3.760149   5.093842   6.490702   7.077089   6.477286
    43  H    4.625652   6.150799   7.554112   8.158656   7.543291
    44  C    2.816602   6.168006   6.478954   7.483882   7.350698
    45  H    3.898355   7.065147   7.544057   8.513589   8.304583
    46  H    5.330474   4.894066   7.084065   7.262082   6.289566
                   11         12         13         14         15
    11  C    0.000000
    12  C    1.425471   0.000000
    13  C    2.436480   1.368792   0.000000
    14  C    2.852017   2.434902   1.423230   0.000000
    15  C    4.254109   3.724964   2.476696   1.402269   0.000000
    16  C    5.121622   4.886252   3.764056   2.451358   1.402269
    17  H    4.883181   4.066813   2.703824   2.147497   1.082139
    18  H    2.162037   1.081598   2.128143   3.414982   4.602067
    19  H    3.416949   2.128252   1.081737   2.159789   2.701860
    20  C    6.518268   7.511016   7.386339   6.216531   6.510444
    21  C    6.183151   7.360417   7.493767   6.510444   7.075254
    22  C    4.938705   6.202310   6.512716   5.712802   6.510444
    23  H    7.080834   8.316669   8.522603   7.575973   8.157393
    24  C    5.104467   6.491873   7.070066   6.512716   7.493767
    25  C    4.270931   5.695962   6.491873   6.202310   7.360417
    26  C    2.845680   4.270931   5.104467   4.938705   6.183151
    27  H    6.160458   7.557999   8.151803   7.577208   8.522305
    28  H    4.892715   6.303135   7.238152   7.094770   8.311198
    29  C    1.408791   2.484609   3.732787   4.260644   5.662568
    30  H    2.150769   2.708300   4.071205   4.885930   6.272799
    31  C    2.433879   3.749373   4.870349   5.104989   6.469811
    32  H    3.410855   4.621955   5.829780   6.159657   7.534747
    33  C    6.519552   6.175598   4.953390   3.764056   2.476696
    34  C    7.488646   7.321132   6.175598   4.886252   3.724964
    35  H    8.519739   8.277523   7.077819   5.849127   4.602067
    36  C    7.382444   7.488646   6.519552   5.121622   4.254109
    37  H    6.946084   6.387351   5.070423   4.099840   2.701860
    38  C    8.617943   8.823673   7.901531   6.492707   5.662568
    39  H    9.526597   9.630671   8.623539   7.243761   6.272799
    40  C    7.911913   8.502276   7.913514   6.518268   6.183151
    41  C    7.913514   8.854877   8.632607   7.386339   7.493767
    42  C    8.502276   9.275934   8.854877   7.511016   7.360417
    43  H    9.583851  10.347804   9.897342   8.537327   8.311198
    44  C    8.843530   9.259683   8.498281   7.075527   6.469811
    45  H    9.887577  10.333315   9.580034   8.157274   7.534747
    46  H    8.632716   9.663961   9.538916   8.340148   8.522305
                   16         17         18         19         20
    16  C    0.000000
    17  H    2.147497   0.000000
    18  H    5.849127   4.762432   0.000000
    19  H    4.099840   2.476996   2.454150   0.000000
    20  C    5.712802   7.575973   8.537327   8.340148   0.000000
    21  C    6.510444   8.157393   8.311198   8.522305   1.402269
    22  C    6.216531   7.575973   7.094770   7.577208   2.451358
    23  H    7.575973   9.239532   9.231963   9.562902   2.147497
    24  C    7.386339   8.522603   7.238152   8.151803   3.764056
    25  C    7.511016   8.316669   6.303135   7.557999   4.886252
    26  C    6.518268   7.080834   4.892715   6.160458   5.121622
    27  H    8.340148   9.562902   8.278325   9.233540   4.099840
    28  H    8.537327   9.231963   6.769648   8.278325   5.849127
    29  C    6.492707   6.276479   2.708946   4.610096   7.075527
    30  H    7.243761   6.746142   2.481927   4.767262   8.157274
    31  C    7.075527   7.223837   4.087681   5.833895   6.492707
    32  H    8.157274   8.262255   4.778256   6.742882   7.243761
    33  C    1.423230   2.703824   7.077819   5.070423   6.512716
    34  C    2.434902   4.066813   8.277523   6.387351   6.202310
    35  H    3.414982   4.762432   9.199060   7.182958   7.094770
    36  C    2.852017   4.883181   8.519739   6.946084   4.938705
    37  H    2.159789   2.476996   7.182958   4.953988   7.577208
    38  C    4.260644   6.276479   9.869641   8.352205   5.104989
    39  H    4.885930   6.746142  10.652910   8.973544   6.159657
    40  C    4.938705   7.080834   9.583851   8.632716   2.852017
    41  C    6.512716   8.522603   9.897342   9.538916   1.423230
    42  C    6.202310   8.316669  10.347804   9.663961   2.434902
    43  H    7.094770   9.231963  11.421508  10.681886   3.414982
    44  C    5.104989   7.223837  10.333468   9.085190   4.260644
    45  H    6.159657   8.262255  11.408605  10.161897   4.885930
    46  H    7.577208   9.562902  10.681886  10.478562   2.159789
                   21         22         23         24         25
    21  C    0.000000
    22  C    1.402269   0.000000
    23  H    1.082139   2.147497   0.000000
    24  C    2.476696   1.423230   2.703824   0.000000
    25  C    3.724964   2.434902   4.066813   1.368792   0.000000
    26  C    4.254109   2.852017   4.883181   2.436480   1.425471
    27  H    2.701860   2.159789   2.476996   1.081737   2.128252
    28  H    4.602067   3.414982   4.762432   2.128143   1.081598
    29  C    6.469811   5.104989   7.223837   4.870349   3.749373
    30  H    7.534747   6.159657   8.262255   5.829780   4.621955
    31  C    5.662568   4.260644   6.276479   3.732787   2.484609
    32  H    6.272799   4.885930   6.746142   4.071205   2.708300
    33  C    7.493767   7.386339   8.522603   8.632607   8.854877
    34  C    7.360417   7.511016   8.316669   8.854877   9.275934
    35  H    8.311198   8.537327   9.231963   9.897342  10.347804
    36  C    6.183151   6.518268   7.080834   7.913514   8.502276
    37  H    8.522305   8.340148   9.562902   9.538916   9.663961
    38  C    6.469811   7.075527   7.223837   8.498281   9.259683
    39  H    7.534747   8.157274   8.262255   9.580034  10.333315
    40  C    4.254109   5.121622   4.883181   6.519552   7.488646
    41  C    2.476696   3.764056   2.703824   4.953390   6.175598
    42  C    3.724964   4.886252   4.066813   6.175598   7.321132
    43  H    4.602067   5.849127   4.762432   7.077819   8.277523
    44  C    5.662568   6.492707   6.276479   7.901531   8.823673
    45  H    6.272799   7.243761   6.746142   8.623539   9.630671
    46  H    2.701860   4.099840   2.476996   5.070423   6.387351
                   26         27         28         29         30
    26  C    0.000000
    27  H    3.416949   0.000000
    28  H    2.162037   2.454150   0.000000
    29  C    2.433879   5.833895   4.087681   0.000000
    30  H    3.410855   6.742882   4.778256   1.081753   0.000000
    31  C    1.408791   4.610096   2.708946   1.384230   2.139899
    32  H    2.150769   4.767262   2.481927   2.139899   2.462724
    33  C    7.913514   9.538916   9.897342   7.901531   8.623539
    34  C    8.502276   9.663961  10.347804   8.823673   9.630671
    35  H    9.583851  10.681886  11.421508   9.869641  10.652910
    36  C    7.911913   8.632716   9.583851   8.617943   9.526597
    37  H    8.632716  10.478562  10.681886   8.352205   8.973544
    38  C    8.843530   9.085190  10.333468   9.791372  10.742680
    39  H    9.887577  10.161897  11.408605  10.742680  11.666902
    40  C    7.382444   6.946084   8.519739   8.843530   9.887577
    41  C    6.519552   5.070423   7.077819   8.498281   9.580034
    42  C    7.488646   6.387351   8.277523   9.259683  10.333315
    43  H    8.519739   7.182958   9.199060  10.333468  11.408605
    44  C    8.617943   8.352205   9.869641   9.888734  10.900190
    45  H    9.526597   8.973544  10.652910  10.900190  11.923993
    46  H    6.946084   4.953988   7.182958   9.085190  10.161897
                   31         32         33         34         35
    31  C    0.000000
    32  H    1.081753   0.000000
    33  C    8.498281   9.580034   0.000000
    34  C    9.259683  10.333315   1.368792   0.000000
    35  H   10.333468  11.408605   2.128143   1.081598   0.000000
    36  C    8.843530   9.887577   2.436480   1.425471   2.162037
    37  H    9.085190  10.161897   1.081737   2.128252   2.454150
    38  C    9.888734  10.900190   3.732787   2.484609   2.708946
    39  H   10.900190  11.923993   4.071205   2.708300   2.481927
    40  C    8.617943   9.526597   5.104467   4.270931   4.892715
    41  C    7.901531   8.623539   7.070066   6.491873   7.238152
    42  C    8.823673   9.630671   6.491873   5.695962   6.303135
    43  H    9.869641  10.652910   7.238152   6.303135   6.769648
    44  C    9.791372  10.742680   4.870349   3.749373   4.087681
    45  H   10.742680  11.666902   5.829780   4.621955   4.778256
    46  H    8.352205   8.973544   8.151803   7.557999   8.278325
                   36         37         38         39         40
    36  C    0.000000
    37  H    3.416949   0.000000
    38  C    1.408791   4.610096   0.000000
    39  H    2.150769   4.767262   1.081753   0.000000
    40  C    2.845680   6.160458   2.433879   3.410855   0.000000
    41  C    5.104467   8.151803   4.870349   5.829780   2.436480
    42  C    4.270931   7.557999   3.749373   4.621955   1.425471
    43  H    4.892715   8.278325   4.087681   4.778256   2.162037
    44  C    2.433879   5.833895   1.384230   2.139899   1.408791
    45  H    3.410855   6.742882   2.139899   2.462724   2.150769
    46  H    6.160458   9.233540   5.833895   6.742882   3.416949
                   41         42         43         44         45
    41  C    0.000000
    42  C    1.368792   0.000000
    43  H    2.128143   1.081598   0.000000
    44  C    3.732787   2.484609   2.708946   0.000000
    45  H    4.071205   2.708300   2.481927   1.081753   0.000000
    46  H    1.081737   2.128252   2.454150   4.610096   4.767262
                   46
    46  H    0.000000
 Stoichiometry    C32H14
 Framework group  D2H[C2"(HCC.CCH),SG(C28H12)]
 Deg. of freedom    23
 Full point group                 D2H     NOp   8
 Largest Abelian subgroup         D2H     NOp   8
 Largest concise Abelian subgroup D2      NOp   4
                         Standard orientation:                         
 ---------------------------------------------------------------------
 Center     Atomic      Atomic             Coordinates (Angstroms)
 Number     Number       Type             X           Y           Z
 ---------------------------------------------------------------------
      1          6           0        0.000000    2.454980    0.713659
      2          6           0        0.000000    1.229164    1.420479
      3          6           0        0.000000    0.000000    0.712978
      4          6           0        0.000000    0.000000   -0.712978
      5          6           0        0.000000    1.229164   -1.420479
      6          6           0        0.000000    2.454980   -0.713659
      7          6           0       -0.000000   -1.229164    1.420479
      8          6           0       -0.000000   -1.229164   -1.420479
      9          6           0       -0.000000   -2.454980   -0.713659
     10          6           0       -0.000000   -2.454980    0.713659
     11          6           0        0.000000   -3.691222   -1.422840
     12          6           0        0.000000   -3.660566   -2.847981
     13          6           0        0.000000   -2.476695   -3.535033
     14          6           0        0.000000   -1.225679   -2.856401
     15          6           0        0.000000    0.000000   -3.537627
     16          6           0        0.000000    1.225679   -2.856401
     17          1           0        0.000000    0.000000   -4.619766
     18          1           0        0.000000   -4.599530   -3.384824
     19          1           0        0.000000   -2.476994   -4.616770
     20          6           0        0.000000    1.225679    2.856401
     21          6           0       -0.000000    0.000000    3.537627
     22          6           0       -0.000000   -1.225679    2.856401
     23          1           0       -0.000000    0.000000    4.619766
     24          6           0       -0.000000   -2.476695    3.535033
     25          6           0       -0.000000   -3.660566    2.847981
     26          6           0       -0.000000   -3.691222    1.422840
     27          1           0       -0.000000   -2.476994    4.616770
     28          1           0       -0.000000   -4.599530    3.384824
     29          6           0        0.000000   -4.895686   -0.692115
     30          1           0        0.000000   -5.833451   -1.231362
     31          6           0       -0.000000   -4.895686    0.692115
     32          1           0       -0.000000   -5.833451    1.231362
     33          6           0        0.000000    2.476695   -3.535033
     34          6           0        0.000000    3.660566   -2.847981
     35          1           0        0.000000    4.599530   -3.384824
     36          6           0        0.000000    3.691222   -1.422840
     37          1           0        0.000000    2.476994   -4.616770
     38          6           0        0.000000    4.895686   -0.692115
     39          1           0        0.000000    5.833451   -1.231362
     40          6           0        0.000000    3.691222    1.422840
     41          6           0        0.000000    2.476695    3.535033
     42          6           0        0.000000    3.660566    2.847981
     43          1           0        0.000000    4.599530    3.384824
     44          6           0        0.000000    4.895686    0.692115
     45          1           0        0.000000    5.833451    1.231362
     46          1           0        0.000000    2.476994    4.616770
 ---------------------------------------------------------------------
 Rotational constants (GHZ):           0.2388306           0.1476334           0.0912359
 Standard basis: 6-311++G(2d,2p) (5D, 7F)
 There are   207 symmetry adapted cartesian basis functions of AG  symmetry.
 There are    66 symmetry adapted cartesian basis functions of B1G symmetry.
 There are    76 symmetry adapted cartesian basis functions of B2G symmetry.
 There are   185 symmetry adapted cartesian basis functions of B3G symmetry.
 There are    66 symmetry adapted cartesian basis functions of AU  symmetry.
 There are   207 symmetry adapted cartesian basis functions of B1U symmetry.
 There are   185 symmetry adapted cartesian basis functions of B2U symmetry.
 There are    76 symmetry adapted cartesian basis functions of B3U symmetry.
 There are   189 symmetry adapted basis functions of AG  symmetry.
 There are    66 symmetry adapted basis functions of B1G symmetry.
 There are    76 symmetry adapted basis functions of B2G symmetry.
 There are   171 symmetry adapted basis functions of B3G symmetry.
 There are    66 symmetry adapted basis functions of AU  symmetry.
 There are   189 symmetry adapted basis functions of B1U symmetry.
 There are   171 symmetry adapted basis functions of B2U symmetry.
 There are    76 symmetry adapted basis functions of B3U symmetry.
  1004 basis functions,  1512 primitive gaussians,  1068 cartesian basis functions
   103 alpha electrons      103 beta electrons
       nuclear repulsion energy      2859.4337371017 Hartrees.
 NAtoms=   46 NActive=   46 NUniq=   13 SFac= 4.00D+00 NAtFMM=   60 NAOKFM=F Big=F
 Integral buffers will be    131072 words long.
 Regular integral format.
 Two-electron integral symmetry is turned on.
 Nuclear repulsion after empirical dispersion term =     2859.2892445152 Hartrees.
 One-electron integrals computed using PRISM.
 NBasis=  1004 RedAO= T EigKep=  1.05D-06  NBF=   189    66    76   171    66   189   171    76
 NBsUse=   973 1.00D-06 EigRej=  8.79D-07 NBFU=   183    66    76   162    66   179   165    76
 ExpMin= 3.60D-02 ExpMax= 4.56D+03 ExpMxC= 6.82D+02 IAcc=3 IRadAn=         5 AccDes= 0.00D+00
 Harris functional with IExCor=  402 and IRadAn=       5 diagonalized for initial guess.
 HarFok:  IExCor=  402 AccDes= 0.00D+00 IRadAn=         5 IDoV= 1 UseB2=F ITyADJ=14
 ICtDFT=  3500011 ScaDFX=  1.000000  1.000000  1.000000  1.000000
 FoFCou: FMM=F IPFlag=           0 FMFlag=      100000 FMFlg1=           0
         NFxFlg=           0 DoJE=T BraDBF=F KetDBF=T FulRan=T
         wScrn=  0.000000 ICntrl=       500 IOpCl=  0 I1Cent=   200000004 NGrid=           0
         NMat0=    1 NMatS0=      1 NMatT0=    0 NMatD0=    1 NMtDS0=    0 NMtDT0=    0
 Petite list used in FoFCou.
 Initial guess orbital symmetries:
       Occupied  (B1U) (AG) (B3G) (B2U) (AG) (B2U) (B1U) (B3G)
                 (AG) (B2U) (B3G) (B1U) (B1U) (AG) (B1U) (B3G)
                 (AG) (B2U) (B3G) (B2U) (B1U) (AG) (AG) (B1U) (B2U)
                 (AG) (B3G) (B1U) (B2U) (B3G) (AG) (B1U) (AG) (B2U)
                 (B1U) (AG) (B3G) (AG) (B2U) (B1U) (B2U) (AG) (B1U)
                 (B3G) (AG) (B3G) (B2U) (B1U) (AG) (B2U) (B3G)
                 (B1U) (AG) (B2U) (B1U) (B3G) (AG) (B1U) (AG) (B2U)
                 (B3G) (B2U) (AG) (B1U) (B3G) (B2U) (B1U) (AG)
                 (B2U) (B3G) (AG) (B1U) (B2U) (AG) (B3G) (B2U)
                 (AG) (B3G) (B3U) (B1U) (AG) (B1G) (B2U) (B3G)
                 (B2G) (B1U) (B1U) (B2U) (B3U) (AU) (B3G) (AG)
                 (B3U) (B1G) (B2G) (B1G) (B2G) (AU) (B3U) (B3U)
                 (AU) (B1G) (B2G)
       Virtual   (B3U) (AU) (B1G) (B2G) (B2G) (B1G) (B3U) (AU)
                 (B3U) (AU) (B2G) (AG) (B2U) (B1U) (B1G) (B3G)
                 (B2G) (AG) (AG) (B2U) (B1U) (B2U) (AG) (B3G) (B3U)
                 (B1U) (B1U) (B3U) (B2U) (B1G) (B2G) (AG) (AG)
                 (AU) (B3G) (B2U) (B3U) (B3G) (B1U) (AU) (AG) (AG)
                 (B1U) (B2U) (B3U) (AG) (B2G) (B2U) (B3G) (B1U)
                 (B1G) (AG) (B1G) (B2U) (B3G) (B1U) (B1U) (AG)
                 (B2G) (B2U) (B2U) (B1U) (B3G) (AG) (AU) (B1U)
                 (AG) (B3G) (B2U) (B3U) (B1U) (B2G) (B2U) (AG)
                 (B3G) (B3U) (AU) (AG) (B1U) (B3G) (B3G) (B1U)
                 (B1G) (B2U) (B2G) (AG) (AG) (B2U) (B1U) (B3U)
                 (B2U) (AG) (B3G) (B2U) (B2G) (B1U) (B3G) (B1G)
                 (AU) (AG) (B3U) (B1U) (B2U) (B3G) (AG) (B1G) (AG)
                 (B3G) (B2U) (B2G) (B2U) (B1U) (AU) (B1U) (AG)
                 (B3G) (B2U) (B2G) (B1U) (AG) (B2U) (AG) (B1U)
                 (AG) (B3G) (B3U) (B2U) (B3G) (B1U) (B2U) (B3G)
                 (AG) (AU) (B2G) (B1U) (B1U) (B3U) (B3G) (B1G)
                 (AG) (B1U) (AG) (B2U) (B1U) (B3G) (B2U) (B1U)
                 (AG) (B3G) (B2U) (AG) (B3G) (B3G) (B3U) (B3G)
                 (B2U) (B1U) (B2G) (AG) (B1G) (B3G) (B1U) (AU)
                 (AG) (B2U) (B1U) (B1U) (B2U) (AG) (B3G) (B1U)
                 (B2U) (AG) (B3G) (B2U) (AG) (B3U) (B1U) (B3U)
                 (B1G) (B2G) (AU) (AG) (B3G) (B1U) (B1G) (B3U)
                 (B2G) (B3U) (AU) (AG) (B1G) (B2U) (B2U) (AG) (B1G)
                 (B2U) (B3U) (B2U) (B1U) (B2G) (B3G) (B3G) (AG)
                 (B1U) (B3G) (B2G) (AG) (B3G) (B1U) (B1U) (AG)
                 (B2U) (B3U) (B3G) (AG) (AU) (B2U) (B1U) (B1G)
                 (AG) (B2U) (AG) (B3G) (B1U) (B2U) (AU) (B2G) (B3U)
                 (B1G) (B3U) (AU) (B2G) (B2G) (B1G) (B3U) (B1G)
                 (AG) (B2G) (AG) (AU) (B3G) (B2U) (B1U) (B1G) (B1U)
                 (B3G) (B3U) (B1U) (B2U) (AG) (B3U) (B2U) (B1G)
                 (AU) (B1U) (AG) (B3U) (B3G) (B2G) (B3U) (AU) (AU)
                 (B1U) (B2G) (B3U) (AG) (B1G) (B3G) (B2G) (B2U)
                 (B1U) (AG) (B3G) (AG) (AU) (B1G) (B1U) (B2U) (B2G)
                 (AG) (AU) (B1U) (B2U) (B3G) (B2G) (B1G) (B2U)
                 (AG) (B1U) (B2U) (B3G) (B1U) (AG) (B3G) (B2U)
                 (B3U) (AG) (AU) (B1U) (B3G) (AG) (B3G) (B2U) (B1U)
                 (B2U) (AG) (B3G) (B1U) (B2U) (AG) (B3G) (B3G)
                 (B1U) (B1U) (B1G) (B3U) (B2G) (B3U) (B2U) (AG)
                 (AU) (B1G) (B3U) (B2G) (AG) (B3G) (B1U) (B2U)
                 (B1G) (B1U) (B3U) (B3G) (B2U) (AG) (B2G) (AU)
                 (AG) (B2U) (AU) (B2G) (B1U) (B2G) (B1G) (B3U)
                 (B1G) (B3G) (AG) (AU) (B3G) (B2U) (B3U) (AG) (B1U)
                 (AU) (B2U) (AG) (B2G) (B3G) (B1G) (B2U) (AG) (B1U)
                 (B2U) (AG) (B3U) (B2G) (AU) (B1U) (B3G) (B3U)
                 (B2G) (AG) (B2U) (B3G) (B1U) (B2U) (AG) (B3G)
                 (B2U) (B1U) (B3G) (B2U) (AG) (B1U) (B1G) (B2U)
                 (AU) (B1U) (B2G) (B3G) (AG) (B1G) (B3U) (AG) (B2G)
                 (AU) (B1G) (B2U) (AG) (B1U) (B2U) (B1U) (B3G)
                 (B3G) (B2U) (AG) (B1U) (B3G) (AG) (B3U) (B2U)
                 (AG) (B2G) (B1U) (B1U) (AU) (AG) (B3G) (B3U) (B3G)
                 (B1U) (AU) (B1G) (B1U) (B2U) (AG) (B3G) (B2G)
                 (B1U) (B2U) (B3G) (B2U) (AG) (B3G) (B2U) (B2G)
                 (AU) (AG) (B1U) (B2U) (B1U) (B3U) (B3G) (AG) (B3G)
                 (AG) (B2U) (B1U) (B3G) (B1U) (B2U) (B1G) (B1U)
                 (AG) (B3G) (B2G) (AG) (B2U) (B3G) (B1U) (B2U)
                 (AG) (B1U) (AU) (B3G) (B3U) (AG) (B1U) (B2U) (B3G)
                 (B1U) (AG) (B3G) (B2U) (B1U) (B3G) (AG) (B1U)
                 (B2U) (B3G) (B1G) (B1U) (AU) (B2G) (AG) (B2U)
                 (B3G) (AG) (B1U) (B2U) (B3G) (B3G) (AG) (B1U)
                 (B1U) (B2U) (B3G) (B1U) (AG) (B3G) (B1U) (B2G)
                 (AU) (B2U) (B3G) (B1U) (AG) (B2U) (B1U) (AG) (B3G)
                 (B3G) (B2U) (B2U) (B1U) (AG) (B3G) (B2U) (AG)
                 (B1U) (B3U) (B1G) (B3G) (B2G) (AU) (B3U) (AG)
                 (B1U) (B1G) (B3U) (B2G) (B3U) (B1G) (AU) (B2G)
                 (B1U) (B1G) (B3U) (AG) (B2G) (B2U) (B1U) (B3U)
                 (B1G) (B3G) (AU) (AG) (B2U) (B3G) (AU) (B2G) (B3U)
                 (B1G) (B2U) (AG) (B1G) (AG) (B3U) (AG) (B2U) (B3G)
                 (B1U) (AG) (B2U) (B1U) (B3G) (AG) (B2U) (AU) (B1U)
                 (B2G) (B3U) (B1G) (B3G) (B3U) (AU) (B2G) (B1G)
                 (B1U) (AU) (B2U) (B2G) (B3U) (B2U) (AG) (B2G)
                 (AG) (AU) (B2G) (B3G) (B2G) (B2U) (AG) (B3U) (B3G)
                 (AU) (B1U) (B1G) (B1U) (B1G) (B3U) (AG) (B2U)
                 (AG) (B3G) (B2U) (B1G) (B1U) (B3U) (AU) (AG) (B2G)
                 (B3G) (B2U) (B1U) (B3G) (B3U) (B2U) (AG) (B1G)
                 (B1U) (AU) (B3G) (B1U) (AG) (B1G) (B3G) (B2G)
                 (B3U) (AG) (B1G) (B2U) (B2U) (AU) (B2G) (AG) (B1U)
                 (B3U) (AU) (B2U) (B1U) (AG) (B3G) (B1G) (B1U)
                 (AU) (B2G) (B2U) (B3U) (B3G) (AG) (B2G) (AG) (B3U)
                 (B1U) (B1U) (B3G) (B1G) (B2U) (B3U) (B2G) (AU)
                 (B1G) (AG) (AU) (B1U) (AG) (B3U) (B3G) (B1G) (B2U)
                 (B3U) (B2G) (B2U) (B2G) (AU) (B1G) (AG) (B1U)
                 (B3G) (B2G) (B2U) (B3G) (B3U) (AU) (B1G) (AG)
                 (B1U) (AU) (AG) (B2G) (B2U) (B3G) (AU) (B2U) (B2G)
                 (B1U) (B3U) (AG) (B3G) (B1U) (B2G) (B3G) (B1G)
                 (B2U) (AU) (B2U) (AG) (B3U) (B1U) (AG) (B1U) (B3G)
                 (B3G) (B1G) (AG) (B1U) (B2G) (AG) (AU) (B2U) (B1U)
                 (B3G) (AG) (B3G) (B2U) (B1G) (B3U) (AU) (B2G)
                 (B3U) (B1G) (B2U) (B1U) (AG) (B3U) (B2G) (AU)
                 (B2G) (B2U) (B1G) (AU) (B3U) (AG) (B1U) (B2G)
                 (B3G) (B3G) (B2U) (B1U) (AU) (B2G) (AG) (B1U)
                 (B2U) (AG) (B1U) (B2U) (B3G) (B2U) (B3G) (B1U)
                 (AG) (B1U) (B3G) (B1U) (AG) (B2U) (B3G) (B3G)
                 (B1U) (B2U) (AG) (AG) (B3G) (B2U) (B1U) (B3G)
                 (B1U) (AG) (B3G) (B2U) (B2U) (B1U) (AG) (B1U)
                 (B3G) (B2U) (AG) (B3G) (B1U) (B3G) (AG) (AG) (B2U)
                 (B1U) (B1U) (B3G) (B2U) (B3G) (B3G) (B2U) (B1U)
                 (AG) (B2U) (B1U) (AG) (B3G) (B1U) (B3G) (AG) (B2U)
                 (B1U) (AG) (B2U) (AG) (B1U) (B3G) (AG) (B1U) (B3G)
                 (B2U) (B3G) (B1U) (AG) (B1U) (B2U) (B3G) (B1U)
                 (AG) (B2U) (B3G) (B1U) (B2U) (B3G) (B3G) (B1U)
                 (AG) (B2U) (B1U) (B3G) (B2U) (AG) (AG) (B1U) (B2U)
                 (B1U) (B3G) (AG) (B1U) (AG) (B3G) (B2U) (B1U)
                 (B2U) (B3G) (AG) (B3G) (B1U) (AG) (B2U) (AG) (B1U)
                 (B2U) (B3G) (B1U) (B1U) (AG) (B3G)
 The electronic state of the initial guess is 1-AG.
 Requested convergence on RMS density matrix=1.00D-08 within 128 cycles.
 Requested convergence on MAX density matrix=1.00D-06.
 Requested convergence on             energy=1.00D-06.
 No special actions if energy rises.
 SCF Done:  E(RB3LYP) =  -1228.46069236     A.U. after   13 cycles
            NFock= 13  Conv=0.33D-08     -V/T= 2.0045
 DoSCS=F DFT=T ScalE2(SS,OS)=  1.000000  1.000000
 ExpMin= 3.60D-02 ExpMax= 4.56D+03 ExpMxC= 6.82D+02 IAcc=3 IRadAn=         5 AccDes= 0.00D+00
 HarFok:  IExCor=  205 AccDes= 0.00D+00 IRadAn=         5 IDoV=-2 UseB2=F ITyADJ=14
 ICtDFT= 12500011 ScaDFX=  1.000000  1.000000  1.000000  1.000000
 GSVD:  LWork=       -1280 too small for GESVD, short by        5600 words or        5600 for optimal perf.
 Range of M.O.s used for correlation:    33   973
 NBasis=  1004 NAE=   103 NBE=   103 NFC=    32 NFV=     0
 NROrb=    941 NOA=    71 NOB=    71 NVA=   870 NVB=   870

 **** Warning!!: The largest alpha MO coefficient is  0.13281139D+03

 Orbital symmetries:
       Occupied  (AG) (B1U) (B3G) (B2U) (B1U) (AG) (B2U) (AG) (B3G)
                 (B1U) (B2U) (AG) (B3G) (B1U) (B2U) (AG) (B3G)
                 (B1U) (B1U) (B3G) (AG) (B2U) (B1U) (AG) (AG) (B2U)
                 (B1U) (AG) (B3G) (B2U) (B3G) (B1U) (AG) (B2U)
                 (B1U) (AG) (B3G) (AG) (B2U) (B1U) (B2U) (AG) (B1U)
                 (B3G) (AG) (B3G) (B2U) (B1U) (AG) (B1U) (B2U)
                 (B3G) (AG) (B2U) (B1U) (B3G) (AG) (B1U) (B3G)
                 (AG) (B2U) (B2U) (B1U) (AG) (B3G) (B2U) (B1U)
                 (AG) (AG) (B2U) (B3U) (B1U) (B3G) (B2U) (B3G)
                 (AG) (B2U) (B1G) (AG) (B2G) (B3G) (B1U) (AG) (B3G)
                 (B1U) (B3U) (AU) (B2U) (B1U) (B2U) (B3U) (B3G)
                 (B1G) (AG) (B2G) (B1G) (B2G) (AU) (B3U) (B3U)
                 (AU) (B1G) (B2G)
       Virtual   (B3U) (AU) (B1G) (B2G) (B3U) (B1G) (B2G) (AG)
                 (B2U) (B1U) (B3G) (AG) (B2U) (B1U) (AU) (AG) (B3U)
                 (AG) (B3G) (B2G) (B2U) (AU) (B1U) (B1G) (B3U)
                 (B2U) (B1U) (B2G) (B3U) (AG) (B3G) (AG) (B3G)
                 (AU) (B3U) (B1G) (AG) (B2U) (B1U) (B2G) (AG) (B2U)
                 (B3G) (B1U) (B1G) (AG) (B1U) (AU) (B2U) (B1U)
                 (B2G) (B2U) (AG) (B3G) (B3U) (B1G) (B2U) (B2G)
                 (B2U) (B3G) (B1U) (AG) (B3U) (AG) (AU) (B1U) (B3G)
                 (B2G) (B1G) (AG) (B3G) (B3U) (B1U) (AG) (B2U)
                 (B1U) (B3U) (B2G) (B3G) (AU) (B1G) (B3U) (B2U)
                 (AG) (B1U) (AG) (AU) (B2U) (B3G) (AG) (B2U) (B1G)
                 (AG) (B1U) (B2G) (B1U) (B2U) (B1U) (AU) (B3G)
                 (B2U) (B2G) (AG) (B1U) (B2U) (B1U) (AG) (B3G)
                 (AG) (B3G) (B2U) (B3U) (B2U) (B2G) (B3G) (AU)
                 (AG) (B2U) (AG) (B1U) (AG) (B3G) (B1U) (B3G) (B2G)
                 (B1U) (AG) (B3U) (B2U) (B1U) (B1G) (B3G) (B3G)
                 (B2U) (B1U) (B1U) (AG) (AG) (B2U) (B3G) (AG) (B2U)
                 (B1U) (B3G) (B2U) (AG) (B3G) (B1U) (B2G) (AU)
                 (B2U) (AG) (B1U) (B3G) (B2U) (AG) (B3G) (B1U)
                 (B2U) (B1U) (B3U) (AG) (B3G) (AG) (B2U) (B1G)
                 (B1U) (B1U) (AG) (B3G) (B3G) (B2U) (B3U) (B3G)
                 (B1G) (B2G) (B2U) (AG) (AU) (B3U) (B1U) (AG) (B1U)
                 (AG) (B1G) (B3U) (B2U) (B3U) (B1G) (AU) (B2G)
                 (B3G) (AG) (B1U) (B2U) (B1G) (B3G) (B2G) (B3U)
                 (B2U) (B1U) (B2G) (B1U) (B2U) (AG) (AG) (B3G)
                 (B2U) (AG) (B3G) (B1U) (AG) (B3U) (B3G) (AU) (B1G)
                 (B1U) (B2U) (B3G) (B2U) (AG) (AU) (B2G) (B1U)
                 (AG) (B2U) (B3U) (AU) (B3G) (B1U) (B3U) (B2G)
                 (B1G) (B1G) (B2G) (B3U) (B1G) (B2G) (AG) (B2U)
                 (AU) (B3U) (AG) (B1U) (B2U) (AG) (B1G) (B1U) (B3G)
                 (B3U) (AU) (AG) (B1G) (B3U) (B2G) (B2U) (AU) (B3G)
                 (B1U) (B1U) (AU) (B2G) (B3U) (B3G) (B1U) (B3U)
                 (B1G) (AG) (B2G) (B3G) (B2U) (B1U) (B3G) (AG)
                 (AU) (B1U) (B2U) (B2G) (B2U) (AG) (B1G) (AU) (AG)
                 (B1U) (B1G) (AG) (B2G) (B3G) (B1U) (B2U) (B3G)
                 (AG) (B2U) (B1U) (B3G) (B2U) (B3G) (AG) (B1U)
                 (B2U) (B3U) (B3G) (AG) (B1U) (AU) (B3G) (AG) (B2U)
                 (B2U) (B1U) (B3G) (AG) (B1U) (B3G) (B3U) (B2G)
                 (B1U) (B1G) (B3U) (B2U) (AU) (B1G) (B3U) (B2G)
                 (AG) (B3G) (AG) (B1U) (B2U) (B1G) (B3U) (B1U)
                 (B2G) (B3G) (B2U) (AG) (AU) (AG) (B2U) (AU) (B2G)
                 (B1G) (B3U) (B1U) (B2G) (B3G) (AG) (AU) (B1G)
                 (B2U) (AG) (B3G) (B3U) (AU) (B1U) (B3G) (B2U)
                 (AG) (AG) (B1U) (B2U) (B2G) (AG) (B1G) (B1U) (B2U)
                 (B2G) (B3U) (AU) (B2G) (B2U) (B3G) (B3G) (AG)
                 (B3U) (B2U) (B3G) (B1U) (B1U) (B3G) (B1U) (AG)
                 (B2U) (B2U) (B1U) (AG) (B1G) (B3G) (B2U) (AG)
                 (AU) (B2G) (B3U) (AG) (B2G) (B1G) (B1U) (AG) (B2U)
                 (B1G) (AU) (B2U) (B3G) (B3G) (B1U) (AG) (B2U)
                 (AG) (B3G) (B1U) (B2U) (B3U) (AG) (B2G) (B1U)
                 (B1U) (B3G) (AU) (AG) (B3G) (B1U) (AG) (B3U) (B1U)
                 (B2U) (B1G) (AU) (B3G) (B1U) (B2U) (B3G) (B2G)
                 (B2U) (AG) (B2U) (AU) (B1U) (B2G) (B3G) (B3G)
                 (AG) (AG) (B2U) (B3U) (B1U) (B3G) (B2U) (AG) (B3G)
                 (B1U) (B1G) (B2G) (B1U) (B2U) (AG) (B3G) (B1U)
                 (AG) (B1U) (B3G) (B2U) (AU) (B3G) (B1U) (B2U)
                 (AG) (B3U) (B1U) (B3G) (AG) (B2U) (B3G) (B1U)
                 (AG) (B1U) (B2U) (B3G) (AG) (B1U) (B3G) (B2U)
                 (B1G) (B1U) (AU) (B2G) (AG) (B3G) (B2U) (AG) (B1U)
                 (B1U) (B3G) (B2U) (AG) (B1U) (B3G) (B2U) (B1U)
                 (B3G) (B3G) (AG) (B2G) (AU) (B1U) (B2U) (B3G)
                 (B1U) (AG) (B1U) (B3G) (B2U) (AG) (B2U) (B3G)
                 (B1U) (B2U) (AG) (B3G) (B2U) (AG) (B1U) (B3G)
                 (B3U) (AG) (B1G) (B1U) (B2G) (AU) (B3U) (B3U)
                 (B1G) (B2G) (B3U) (B1G) (B1U) (AU) (B2G) (AG)
                 (B2U) (B1G) (B3U) (B1U) (B3G) (AG) (B2G) (B2U)
                 (B3G) (B3U) (B1G) (AU) (AU) (B2G) (B3U) (B1G)
                 (B2U) (AG) (B1G) (B3U) (AG) (B1U) (AG) (B2U) (AG)
                 (B3G) (B1U) (B2U) (B3G) (B2U) (B3U) (AG) (B1U)
                 (B1G) (AU) (B3G) (B2G) (B1U) (AU) (B2U) (B3U)
                 (B2G) (B1G) (AU) (AG) (B2G) (B3U) (AG) (B2G) (AU)
                 (B2U) (B2G) (B3G) (B2G) (B2U) (B3U) (AG) (B3G)
                 (B1U) (AU) (B1G) (B1U) (B1G) (B3U) (AG) (B3G)
                 (B1G) (B1U) (B2U) (AG) (B3U) (B2U) (AU) (B2G)
                 (AG) (B3G) (B2U) (B1U) (B3U) (B3G) (B1G) (AG)
                 (AU) (B2U) (B1U) (B3G) (B2G) (B1U) (B1G) (B1G)
                 (AG) (B3U) (B2U) (B3G) (AU) (AG) (B3U) (B2G) (B2U)
                 (AU) (B1U) (AG) (B1U) (B1G) (B2U) (B3U) (B2G)
                 (AU) (AG) (B3G) (B2G) (B1U) (AG) (B2U) (B3G) (B3U)
                 (AG) (B1U) (B1G) (B3G) (B1U) (B2G) (B3U) (AU)
                 (B1G) (AU) (AG) (B2U) (B3U) (B3U) (B1G) (B1U)
                 (B3G) (AG) (B2U) (B2G) (B2G) (AU) (B2U) (B1G)
                 (B2G) (AG) (B3U) (B1U) (B1G) (B3G) (AU) (AU) (B2U)
                 (AG) (B3G) (B2G) (B1U) (B2G) (AG) (AU) (B2U) (B3G)
                 (B2U) (B1U) (B3U) (AG) (B2G) (B3G) (B1U) (B3G)
                 (B1G) (B2U) (AU) (B2U) (AG) (B3U) (AG) (B1U) (B3G)
                 (B1U) (B1G) (B3G) (B2G) (AG) (AU) (B1U) (B2U)
                 (AG) (B1G) (B3G) (B3U) (AU) (B1U) (B2G) (AG) (B3U)
                 (B1G) (B2U) (B3G) (B3U) (B2G) (AU) (B2G) (B1G)
                 (B2U) (B3U) (AU) (B1U) (AG) (B2G) (B2U) (B1U)
                 (AG) (AU) (B3G) (B2U) (B2G) (B3G) (AG) (B1U) (B1U)
                 (B2U) (B3G) (AG) (B2U) (B1U) (B2U) (B3G) (B1U)
                 (AG) (B1U) (B3G) (B1U) (AG) (B3G) (B2U) (B3G)
                 (B1U) (B2U) (AG) (AG) (B3G) (B2U) (B3G) (B1U)
                 (B1U) (B3G) (AG) (B2U) (B2U) (B1U) (AG) (B2U)
                 (B3G) (B1U) (B3G) (AG) (B1U) (B3G) (AG) (B1U)
                 (B2U) (AG) (B3G) (B1U) (B3G) (B2U) (B2U) (B3G)
                 (B1U) (B2U) (AG) (B1U) (AG) (B3G) (B1U) (B3G)
                 (AG) (B2U) (B1U) (AG) (B2U) (AG) (B1U) (AG) (B3G)
                 (B1U) (B3G) (B2U) (B1U) (B3G) (AG) (B1U) (B2U)
                 (B3G) (B1U) (AG) (B2U) (B3G) (B1U) (B2U) (B3G)
                 (B3G) (B1U) (AG) (B2U) (B1U) (B3G) (B2U) (AG)
                 (AG) (B1U) (B1U) (B2U) (B3G) (AG) (B1U) (AG) (B3G)
                 (B2U) (B1U) (B2U) (B3G) (AG) (B3G) (B1U) (AG)
                 (B2U) (AG) (B1U) (B2U) (B3G) (B1U) (B1U) (AG)
                 (B3G)
    80 initial guesses have been made.
 Convergence on wavefunction:    0.000001000000000
 Iteration     1 Dimension    80 NMult     0 NNew     80
 CISAX will form    18 AO SS matrices at one time.
 New state      1 was old state      3
 New state      2 was old state      1
 New state      3 was old state      4
 New state      4 was old state      7
 New state      6 was old state      2
 New state      7 was old state      9
 New state      8 was old state     10
 New state      9 was old state     11
 New state     10 was old state      6
 Iteration     2 Dimension   100 NMult    80 NNew     20
 New state      1 was old state      2
 New state      2 was old state      1
 New state      4 was old state      5
 New state      5 was old state      4
 New state      7 was old state     10
 New state      8 was old state      7
 New state      9 was old state     11
 New state     10 was old state      8
 Iteration     3 Dimension   120 NMult   100 NNew     20
 Iteration     4 Dimension   140 NMult   120 NNew     20
 Iteration     5 Dimension   160 NMult   140 NNew     20
 Iteration     6 Dimension   180 NMult   160 NNew     20
 Iteration     7 Dimension   200 NMult   180 NNew     20
 Iteration     8 Dimension   220 NMult   200 NNew     20
 Iteration     9 Dimension   238 NMult   220 NNew     18
 Iteration    10 Dimension   250 NMult   238 NNew     12
 ***********************************************************************
 Excited states from <AA,BB:AA,BB> singles matrix:
 ***********************************************************************
 
 Ground to excited state transition densities written to RWF  633
 Ground to excited state transition electric dipole moments (Au):
       state          X           Y           Z        Dip. S.      Osc.
         1        -0.0000      0.0000      1.5498      2.4020      0.1548
         2         0.0000     -0.0228      0.0000      0.0005      0.0000
         3        -0.0000      0.0000     -0.0000      0.0000      0.0000
         4        -0.0000     -0.0000     -0.0000      0.0000      0.0000
         5         0.0000      0.0000      0.0000      0.0000      0.0000
         6         0.0000      3.4261     -0.0000     11.7385      1.0405
         7        -0.0000     -0.0000      1.8126      3.2855      0.3072
         8        -0.0000      0.0000      0.0000      0.0000      0.0000
         9         0.0000      0.0000     -0.0000      0.0000      0.0000
        10        -0.0000      0.0000     -0.0584      0.0034      0.0003
 Ground to excited state transition velocity dipole moments (Au):
       state          X           Y           Z        Dip. S.      Osc.
         1         0.0000     -0.0000     -0.1510      0.0228      0.1573
         2         0.0000      0.0019      0.0000      0.0000      0.0000
         3         0.0000     -0.0000     -0.0000      0.0000      0.0000
         4         0.0000      0.0000      0.0000      0.0000      0.0000
         5         0.0000     -0.0000      0.0000      0.0000      0.0000
         6        -0.0000     -0.4556      0.0000      0.2076      1.0408
         7         0.0000      0.0000     -0.2557      0.0654      0.3108
         8         0.0000     -0.0000      0.0000      0.0000      0.0000
         9        -0.0000     -0.0000      0.0000      0.0000      0.0000
        10         0.0000      0.0000      0.0087      0.0001      0.0003
 Ground to excited state transition magnetic dipole moments (Au):
       state          X           Y           Z
         1         0.0000      0.0000      0.0000
         2        -0.0000     -0.0000     -0.0000
         3        -2.8559      0.0000     -0.0000
         4         3.1823     -0.0000      0.0000
         5         0.0000      0.0000      0.0000
         6         0.0000     -0.0000      0.0000
         7        -0.0000      0.0000      0.0000
         8        -0.0000      0.0000     -0.0000
         9        -0.0000      0.0000      0.0000
        10         0.0000     -0.0000     -0.0000
 Ground to excited state transition velocity quadrupole moments (Au):
       state          XX          YY          ZZ          XY          XZ          YZ
         1        -0.0000      0.0000     -0.0000     -0.0000      0.0000     -0.0000
         2        -0.0000      0.0000      0.0000      0.0000     -0.0000      0.0000
         3         0.0000      0.0000      0.0000      0.0000      0.0000     -0.1172
         4         0.0000      0.0000      0.0000     -0.0000     -0.0000      0.2525
         5        -0.0057     -0.0707     -0.1564     -0.0000      0.0000      0.0000
         6        -0.0000      0.0000      0.0000     -0.0000     -0.0000     -0.0000
         7        -0.0000      0.0000     -0.0000     -0.0000      0.0000      0.0000
         8         0.0042      0.2265     -0.3693      0.0000      0.0000      0.0000
         9        -0.0027      0.0158     -0.2901     -0.0000      0.0000      0.0000
        10        -0.0000     -0.0000     -0.0000      0.0000      0.0000     -0.0000
 <0|del|b> * <b|rxdel|0> + <0|del|b> * <b|delr+rdel|0>
 Rotatory Strengths (R) in cgs (10**-40 erg-esu-cm/Gauss)
       state          XX          YY          ZZ    R(velocity)    E-M Angle
         1        -0.0000     -0.0000     -0.0000     -0.0000       90.00
         2         0.0000     -0.0000     -0.0000     -0.0000       90.00
         3        -0.0000     -0.0000     -0.0000     -0.0000       90.00
         4        -0.0000      0.0000      0.0000      0.0000       90.00
         5         0.0000      0.0000      0.0000      0.0000       90.00
         6         0.0000     -0.0000      0.0000      0.0000       90.00
         7        -0.0000     -0.0000      0.0000     -0.0000       90.00
         8         0.0000      0.0000     -0.0000     -0.0000       90.00
         9         0.0000      0.0000      0.0000      0.0000       90.00
        10        -0.0000     -0.0000      0.0000     -0.0000       90.00
 1/2[<0|r|b>*<b|rxdel|0> + (<0|rxdel|b>*<b|r|0>)*]
 Rotatory Strengths (R) in cgs (10**-40 erg-esu-cm/Gauss)
       state          XX          YY          ZZ     R(length)
         1         0.0000     -0.0000     -0.0000     -0.0000
         2         0.0000     -0.0000      0.0000     -0.0000
         3        -0.0000     -0.0000     -0.0000     -0.0000
         4         0.0000     -0.0000      0.0000      0.0000
         5        -0.0000     -0.0000     -0.0000     -0.0000
         6        -0.0000      0.0000      0.0000      0.0000
         7        -0.0000      0.0000     -0.0000     -0.0000
         8        -0.0000     -0.0000      0.0000     -0.0000
         9         0.0000     -0.0000      0.0000      0.0000
        10         0.0000      0.0000     -0.0000     -0.0000
  1/2[<0|del|b>*<b|r|0> + (<0|r|b>*<b|del|0>)*] (Au)
       state          X           Y           Z        Dip. S.   Osc.(frdel)
         1        -0.0000     -0.0000     -0.2340      0.2340      0.1560
         2         0.0000     -0.0000      0.0000      0.0000      0.0000
         3        -0.0000     -0.0000      0.0000      0.0000      0.0000
         4        -0.0000     -0.0000     -0.0000      0.0000      0.0000
         5         0.0000     -0.0000      0.0000      0.0000      0.0000
         6        -0.0000     -1.5610     -0.0000      1.5610      1.0406
         7        -0.0000     -0.0000     -0.4635      0.4635      0.3090
         8        -0.0000     -0.0000      0.0000      0.0000      0.0000
         9        -0.0000     -0.0000     -0.0000      0.0000      0.0000
        10        -0.0000      0.0000     -0.0005      0.0005      0.0003

 Excitation energies and oscillator strengths:
 
 Excited State   1:      Singlet-B1U    2.6298 eV  471.46 nm  f=0.1548  <S**2>=0.000
     102 ->105        -0.17327
     103 ->104         0.68228
 
 Excited State   2:      Singlet-B2U    2.7603 eV  449.17 nm  f=0.0000  <S**2>=0.000
     102 ->104         0.49933
     103 ->105         0.49807
 
 Excited State   3:      Singlet-B3G    3.3371 eV  371.54 nm  f=0.0000  <S**2>=0.000
     101 ->104         0.17491
     103 ->106         0.67915
 
 Excited State   4:      Singlet-B3G    3.4887 eV  355.39 nm  f=0.0000  <S**2>=0.000
     101 ->104         0.67687
     103 ->106        -0.17351
 
 Excited State   5:      Singlet-AG     3.5585 eV  348.41 nm  f=0.0000  <S**2>=0.000
     100 ->104        -0.16590
     103 ->107         0.67476
 
 Excited State   6:      Singlet-B2U    3.6179 eV  342.70 nm  f=1.0405  <S**2>=0.000
     100 ->106         0.11536
     101 ->107        -0.11863
     102 ->104        -0.48155
     103 ->105         0.48312
 This state for optimization and/or second-order correction.
 Total Energy, E(TD-HF/TD-DFT) =  -1228.32773770    
 Copying the excited state density for this state as the 1-particle RhoCI density.
 
 Excited State   7:      Singlet-B1U    3.8166 eV  324.86 nm  f=0.3072  <S**2>=0.000
     101 ->106         0.12638
     102 ->105         0.66758
     103 ->104         0.15375
 
 Excited State   8:      Singlet-AG     3.8793 eV  319.61 nm  f=0.0000  <S**2>=0.000
     100 ->104         0.59020
     102 ->106         0.34969
     103 ->107         0.10549
 
 Excited State   9:      Singlet-AG     3.9450 eV  314.28 nm  f=0.0000  <S**2>=0.000
      99 ->104         0.19947
     100 ->104         0.25936
     101 ->105         0.45222
     102 ->106        -0.39139
     103 ->107         0.12551
     103 ->110         0.10087
 
 Excited State  10:      Singlet-B1U    4.0211 eV  308.33 nm  f=0.0003  <S**2>=0.000
      97 ->104         0.10054
     103 ->108         0.69276
 SavETr:  write IOETrn=   770 NScale= 10 NData=  16 NLR=1 NState=   10 LETran=     190.
          IDoAtm=1111111111111111111111111111111111111111111111
          Differentiating once with respect to electric field.
                with respect to dipole field.
          Differentiating once with respect to nuclear coordinates.
          There are     1 degrees of freedom in the 1st order CPHF.  IDoFFX=0 NUNeed=     1.
 LinEq1:  Iter=  0 NonCon=     1 RMS=1.26D-03 Max=2.18D-01 NDo=     1
 AX will form     1 AO Fock derivatives at one time.
 LinEq1:  Iter=  1 NonCon=     1 RMS=1.99D-04 Max=2.01D-02 NDo=     1
 LinEq1:  Iter=  2 NonCon=     1 RMS=1.43D-04 Max=1.36D-02 NDo=     1
 LinEq1:  Iter=  3 NonCon=     1 RMS=1.00D-04 Max=1.03D-02 NDo=     1
 LinEq1:  Iter=  4 NonCon=     1 RMS=7.92D-05 Max=9.29D-03 NDo=     1
 LinEq1:  Iter=  5 NonCon=     1 RMS=2.72D-05 Max=2.59D-03 NDo=     1
 LinEq1:  Iter=  6 NonCon=     1 RMS=1.62D-05 Max=2.18D-03 NDo=     1
 LinEq1:  Iter=  7 NonCon=     1 RMS=1.34D-05 Max=1.57D-03 NDo=     1
 LinEq1:  Iter=  8 NonCon=     1 RMS=9.31D-06 Max=7.18D-04 NDo=     1
 LinEq1:  Iter=  9 NonCon=     1 RMS=4.22D-06 Max=2.69D-04 NDo=     1
 LinEq1:  Iter= 10 NonCon=     1 RMS=1.18D-06 Max=8.42D-05 NDo=     1
 LinEq1:  Iter= 11 NonCon=     1 RMS=6.98D-07 Max=5.57D-05 NDo=     1
 LinEq1:  Iter= 12 NonCon=     1 RMS=2.94D-07 Max=1.80D-05 NDo=     1
 LinEq1:  Iter= 13 NonCon=     1 RMS=9.74D-08 Max=6.00D-06 NDo=     1
 LinEq1:  Iter= 14 NonCon=     1 RMS=5.15D-08 Max=4.26D-06 NDo=     1
 LinEq1:  Iter= 15 NonCon=     1 RMS=1.33D-08 Max=8.64D-07 NDo=     1
 LinEq1:  Iter= 16 NonCon=     1 RMS=5.15D-09 Max=4.53D-07 NDo=     1
 LinEq1:  Iter= 17 NonCon=     1 RMS=3.10D-09 Max=2.16D-07 NDo=     1
 LinEq1:  Iter= 18 NonCon=     1 RMS=1.37D-09 Max=9.77D-08 NDo=     1
 LinEq1:  Iter= 19 NonCon=     1 RMS=8.05D-10 Max=4.59D-08 NDo=     1
 LinEq1:  Iter= 20 NonCon=     1 RMS=1.64D-10 Max=8.27D-09 NDo=     1
 LinEq1:  Iter= 21 NonCon=     1 RMS=4.10D-11 Max=1.91D-09 NDo=     1
 LinEq1:  Iter= 22 NonCon=     0 RMS=1.89D-11 Max=8.23D-10 NDo=     1
 Linear equations converged to 1.000D-10 1.000D-09 after    22 iterations.
          There are     1 degrees of freedom in the 1st order CPHF.  IDoFFX=0 NUNeed=     1.
 End of Minotr F.D. properties file   721 does not exist.
 End of Minotr F.D. properties file   722 does not exist.
 End of Minotr F.D. properties file   788 does not exist.
 PrsmSu:  requested number of processors reduced to:  16 ShMem   1 Linda.
 Symmetrizing basis deriv contribution to polar:
 IMax=3 JMax=2 DiffMx= 0.00D+00
 G2DrvN: will do    24 centers at a time, making    2 passes.
 Calling FoFCou, ICntrl=  3107 FMM=F I1Cent=   0 AccDes= 0.00D+00.
 Calling FoFCou, ICntrl=  3107 FMM=F I1Cent=   0 AccDes= 0.00D+00.
 G2DrvN: will do    24 centers at a time, making    2 passes.
 Calling FoFCou, ICntrl=  3107 FMM=F I1Cent=   0 AccDes= 0.00D+00.
 Calling FoFCou, ICntrl=  3107 FMM=F I1Cent=   0 AccDes= 0.00D+00.
 G2DrvN: will do    16 centers at a time, making    3 passes.
 Calling FoFCou, ICntrl=  3107 FMM=F I1Cent=   0 AccDes= 0.00D+00.
 Calling FoFCou, ICntrl=  3107 FMM=F I1Cent=   0 AccDes= 0.00D+00.
 Calling FoFCou, ICntrl=  3107 FMM=F I1Cent=   0 AccDes= 0.00D+00.
 End of G2Drv F.D. properties file   721 does not exist.
 End of G2Drv F.D. properties file   722 does not exist.
 End of G2Drv F.D. properties file   788 does not exist.
          IDoAtm=1111111111111111111111111111111111111111111111
          Differentiating once with respect to electric field.
                with respect to dipole field.
          Differentiating once with respect to nuclear coordinates.
 CalDSu exits because no D1Ps are significant.
          There are   141 degrees of freedom in the 1st order CPHF.  IDoFFX=6 NUNeed=   141.
    138 vectors produced by pass  0 Test12= 8.96D-14 1.00D-09 XBig12= 1.90D+03 2.99D+01.
 AX will form    54 AO Fock derivatives at one time.
    138 vectors produced by pass  1 Test12= 8.96D-14 1.00D-09 XBig12= 3.70D+02 2.66D+00.
    138 vectors produced by pass  2 Test12= 8.96D-14 1.00D-09 XBig12= 9.83D+00 3.74D-01.
    138 vectors produced by pass  3 Test12= 8.96D-14 1.00D-09 XBig12= 4.44D-02 2.71D-02.
    138 vectors produced by pass  4 Test12= 8.96D-14 1.00D-09 XBig12= 1.58D-04 2.14D-03.
    138 vectors produced by pass  5 Test12= 8.96D-14 1.00D-09 XBig12= 3.13D-07 5.64D-05.
     76 vectors produced by pass  6 Test12= 8.96D-14 1.00D-09 XBig12= 5.19D-10 2.23D-06.
      4 vectors produced by pass  7 Test12= 8.96D-14 1.00D-09 XBig12= 9.75D-13 1.23D-07.
      2 vectors produced by pass  8 Test12= 8.96D-14 1.00D-09 XBig12= 1.51D-15 5.43D-09.
 InvSVY:  IOpt=1 It=  1 EMax= 1.42D-14
 Solved reduced A of dimension   910 with   141 vectors.
 Isotropic polarizability for W=    0.000000      438.01 Bohr**3.
 End of Minotr F.D. properties file   721 does not exist.
 End of Minotr F.D. properties file   722 does not exist.
 End of Minotr F.D. properties file   788 does not exist.
 This link is doing   141 degrees of freedom
 Form MO integral derivatives with frozen-active canonical formalism.
 CISSec: MDV=    1342156719
 Doing TD-HF/TD-DFT second derivatives, IDoFFX=6 IOneXC=4 IRadAn=         1.
 Frozen orbitals handled with amplitudes over full window.
 CISAX will form    18 AO SS matrices at one time.
    139 vectors produced by pass  0 Test12= 1.24D-13 1.00D-09 XBig12= 2.11D+03 3.15D+01.
 AX will form    18 AO Fock derivatives at one time.
    138 vectors produced by pass  1 Test12= 1.24D-13 1.00D-09 XBig12= 4.74D+02 1.06D+01.
    138 vectors produced by pass  2 Test12= 1.24D-13 1.00D-09 XBig12= 5.36D+00 6.91D-01.
    138 vectors produced by pass  3 Test12= 1.24D-13 1.00D-09 XBig12= 2.87D-02 3.56D-02.
    138 vectors produced by pass  4 Test12= 1.24D-13 1.00D-09 XBig12= 2.04D-04 2.25D-03.
    138 vectors produced by pass  5 Test12= 1.24D-13 1.00D-09 XBig12= 1.22D-06 2.19D-04.
    112 vectors produced by pass  6 Test12= 1.24D-13 1.00D-09 XBig12= 3.23D-09 1.27D-05.
     51 vectors produced by pass  7 Test12= 1.24D-13 1.00D-09 XBig12= 6.60D-12 3.78D-07.
      4 vectors produced by pass  8 Test12= 1.24D-13 1.00D-09 XBig12= 1.09D-14 1.28D-08.
 InvSVY:  IOpt=1 It=  1 EMax= 1.43D-13
 Solved reduced A of dimension   996 with   141 vectors.
 Tx.T = -1.10D-05 for pert.     2
 Tx.T =  3.38D-06 for pert.     3
 Tx.T =  5.66D-07 for pert.    23
 Tx.T =  5.48D-07 for pert.    26
 Tx.T =  3.43D-07 for pert.   135
 Tx.T = -3.40D-07 for pert.   117
 Tx.T = -3.30D-07 for pert.    12
 Tx.T =  3.17D-07 for pert.    80
 Tx.T =  3.10D-07 for pert.    15
 Tx.T =  2.90D-07 for pert.    35
 SavDET:  read IOETrn=   770 NScale= 10 NData=  16 NLR=1 NState=   10 NDeriv=    0 LETran=     190.
 SavDET: write IOETrn=   770 NScale= 10 NData=  16 NLR=1 NState=   10 NDeriv=  141 LETran=    2446.
 TDDxLx will form    18 C1x/S1x matrices at one time.
 Interchange theorem applied.

 **********************************************************************

            Population analysis using the SCF density.

 **********************************************************************

 Orbital symmetries:
       Occupied  (AG) (B1U) (B3G) (B2U) (B1U) (AG) (B2U) (AG) (B3G)
                 (B1U) (B2U) (AG) (B3G) (B1U) (B2U) (AG) (B3G)
                 (B1U) (B1U) (B3G) (AG) (B2U) (B1U) (AG) (AG) (B2U)
                 (B1U) (AG) (B3G) (B2U) (B3G) (B1U) (AG) (B2U)
                 (B1U) (AG) (B3G) (AG) (B2U) (B1U) (B2U) (AG) (B1U)
                 (B3G) (AG) (B3G) (B2U) (B1U) (AG) (B1U) (B2U)
                 (B3G) (AG) (B2U) (B1U) (B3G) (AG) (B1U) (B3G)
                 (AG) (B2U) (B2U) (B1U) (AG) (B3G) (B2U) (B1U)
                 (AG) (AG) (B2U) (B3U) (B1U) (B3G) (B2U) (B3G)
                 (AG) (B2U) (B1G) (AG) (B2G) (B3G) (B1U) (AG) (B3G)
                 (B1U) (B3U) (AU) (B2U) (B1U) (B2U) (B3U) (B3G)
                 (B1G) (AG) (B2G) (B1G) (B2G) (AU) (B3U) (B3U)
                 (AU) (B1G) (B2G)
       Virtual   (B3U) (AU) (B1G) (B2G) (B3U) (B1G) (B2G) (AG)
                 (B2U) (B1U) (B3G) (AG) (B2U) (B1U) (AU) (AG) (B3U)
                 (AG) (B3G) (B2G) (B2U) (AU) (B1U) (B1G) (B3U)
                 (B2U) (B1U) (B2G) (B3U) (AG) (B3G) (AG) (B3G)
                 (AU) (B3U) (B1G) (AG) (B2U) (B1U) (B2G) (AG) (B2U)
                 (B3G) (B1U) (B1G) (AG) (B1U) (AU) (B2U) (B1U)
                 (B2G) (B2U) (AG) (B3G) (B3U) (B1G) (B2U) (B2G)
                 (B2U) (B3G) (B1U) (AG) (B3U) (AG) (AU) (B1U) (B3G)
                 (B2G) (B1G) (AG) (B3G) (B3U) (B1U) (AG) (B2U)
                 (B1U) (B3U) (B2G) (B3G) (AU) (B1G) (B3U) (B2U)
                 (AG) (B1U) (AG) (AU) (B2U) (B3G) (AG) (B2U) (B1G)
                 (AG) (B1U) (B2G) (B1U) (B2U) (B1U) (AU) (B3G)
                 (B2U) (B2G) (AG) (B1U) (B2U) (B1U) (AG) (B3G)
                 (AG) (B3G) (B2U) (B3U) (B2U) (B2G) (B3G) (AU)
                 (AG) (B2U) (AG) (B1U) (AG) (B3G) (B1U) (B3G) (B2G)
                 (B1U) (AG) (B3U) (B2U) (B1U) (B1G) (B3G) (B3G)
                 (B2U) (B1U) (B1U) (AG) (AG) (B2U) (B3G) (AG) (B2U)
                 (B1U) (B3G) (B2U) (AG) (B3G) (B1U) (B2G) (AU)
                 (B2U) (AG) (B1U) (B3G) (B2U) (AG) (B3G) (B1U)
                 (B2U) (B1U) (B3U) (AG) (B3G) (AG) (B2U) (B1G)
                 (B1U) (B1U) (AG) (B3G) (B3G) (B2U) (B3U) (B3G)
                 (B1G) (B2G) (B2U) (AG) (AU) (B3U) (B1U) (AG) (B1U)
                 (AG) (B1G) (B3U) (B2U) (B3U) (B1G) (AU) (B2G)
                 (B3G) (AG) (B1U) (B2U) (B1G) (B3G) (B2G) (B3U)
                 (B2U) (B1U) (B2G) (B1U) (B2U) (AG) (AG) (B3G)
                 (B2U) (AG) (B3G) (B1U) (AG) (B3U) (B3G) (AU) (B1G)
                 (B1U) (B2U) (B3G) (B2U) (AG) (AU) (B2G) (B1U)
                 (AG) (B2U) (B3U) (AU) (B3G) (B1U) (B3U) (B2G)
                 (B1G) (B1G) (B2G) (B3U) (B1G) (B2G) (AG) (B2U)
                 (AU) (B3U) (AG) (B1U) (B2U) (AG) (B1G) (B1U) (B3G)
                 (B3U) (AU) (AG) (B1G) (B3U) (B2G) (B2U) (AU) (B3G)
                 (B1U) (B1U) (AU) (B2G) (B3U) (B3G) (B1U) (B3U)
                 (B1G) (AG) (B2G) (B3G) (B2U) (B1U) (B3G) (AG)
                 (AU) (B1U) (B2U) (B2G) (B2U) (AG) (B1G) (AU) (AG)
                 (B1U) (B1G) (AG) (B2G) (B3G) (B1U) (B2U) (B3G)
                 (AG) (B2U) (B1U) (B3G) (B2U) (B3G) (AG) (B1U)
                 (B2U) (B3U) (B3G) (AG) (B1U) (AU) (B3G) (AG) (B2U)
                 (B2U) (B1U) (B3G) (AG) (B1U) (B3G) (B3U) (B2G)
                 (B1U) (B1G) (B3U) (B2U) (AU) (B1G) (B3U) (B2G)
                 (AG) (B3G) (AG) (B1U) (B2U) (B1G) (B3U) (B1U)
                 (B2G) (B3G) (B2U) (AG) (AU) (AG) (B2U) (AU) (B2G)
                 (B1G) (B3U) (B1U) (B2G) (B3G) (AG) (AU) (B1G)
                 (B2U) (AG) (B3G) (B3U) (AU) (B1U) (B3G) (B2U)
                 (AG) (AG) (B1U) (B2U) (B2G) (AG) (B1G) (B1U) (B2U)
                 (B2G) (B3U) (AU) (B2G) (B2U) (B3G) (B3G) (AG)
                 (B3U) (B2U) (B3G) (B1U) (B1U) (B3G) (B1U) (AG)
                 (B2U) (B2U) (B1U) (AG) (B1G) (B3G) (B2U) (AG)
                 (AU) (B2G) (B3U) (AG) (B2G) (B1G) (B1U) (AG) (B2U)
                 (B1G) (AU) (B2U) (B3G) (B3G) (B1U) (AG) (B2U)
                 (AG) (B3G) (B1U) (B2U) (B3U) (AG) (B2G) (B1U)
                 (B1U) (B3G) (AU) (AG) (B3G) (B1U) (AG) (B3U) (B1U)
                 (B2U) (B1G) (AU) (B3G) (B1U) (B2U) (B3G) (B2G)
                 (B2U) (AG) (B2U) (AU) (B1U) (B2G) (B3G) (B3G)
                 (AG) (AG) (B2U) (B3U) (B1U) (B3G) (B2U) (AG) (B3G)
                 (B1U) (B1G) (B2G) (B1U) (B2U) (AG) (B3G) (B1U)
                 (AG) (B1U) (B3G) (B2U) (AU) (B3G) (B1U) (B2U)
                 (AG) (B3U) (B1U) (B3G) (AG) (B2U) (B3G) (B1U)
                 (AG) (B1U) (B2U) (B3G) (AG) (B1U) (B3G) (B2U)
                 (B1G) (B1U) (AU) (B2G) (AG) (B3G) (B2U) (AG) (B1U)
                 (B1U) (B3G) (B2U) (AG) (B1U) (B3G) (B2U) (B1U)
                 (B3G) (B3G) (AG) (B2G) (AU) (B1U) (B2U) (B3G)
                 (B1U) (AG) (B1U) (B3G) (B2U) (AG) (B2U) (B3G)
                 (B1U) (B2U) (AG) (B3G) (B2U) (AG) (B1U) (B3G)
                 (B3U) (AG) (B1G) (B1U) (B2G) (AU) (B3U) (B3U)
                 (B1G) (B2G) (B3U) (B1G) (B1U) (AU) (B2G) (AG)
                 (B2U) (B1G) (B3U) (B1U) (B3G) (AG) (B2G) (B2U)
                 (B3G) (B3U) (B1G) (AU) (AU) (B2G) (B3U) (B1G)
                 (B2U) (AG) (B1G) (B3U) (AG) (B1U) (AG) (B2U) (AG)
                 (B3G) (B1U) (B2U) (B3G) (B2U) (B3U) (AG) (B1U)
                 (B1G) (AU) (B3G) (B2G) (B1U) (AU) (B2U) (B3U)
                 (B2G) (B1G) (AU) (AG) (B2G) (B3U) (AG) (B2G) (AU)
                 (B2U) (B2G) (B3G) (B2G) (B2U) (B3U) (AG) (B3G)
                 (B1U) (AU) (B1G) (B1U) (B1G) (B3U) (AG) (B3G)
                 (B1G) (B1U) (B2U) (AG) (B3U) (B2U) (AU) (B2G)
                 (AG) (B3G) (B2U) (B1U) (B3U) (B3G) (B1G) (AG)
                 (AU) (B2U) (B1U) (B3G) (B2G) (B1U) (B1G) (B1G)
                 (AG) (B3U) (B2U) (B3G) (AU) (AG) (B3U) (B2G) (B2U)
                 (AU) (B1U) (AG) (B1U) (B1G) (B2U) (B3U) (B2G)
                 (AU) (AG) (B3G) (B2G) (B1U) (AG) (B2U) (B3G) (B3U)
                 (AG) (B1U) (B1G) (B3G) (B1U) (B2G) (B3U) (AU)
                 (B1G) (AU) (AG) (B2U) (B3U) (B3U) (B1G) (B1U)
                 (B3G) (AG) (B2U) (B2G) (B2G) (AU) (B2U) (B1G)
                 (B2G) (AG) (B3U) (B1U) (B1G) (B3G) (AU) (AU) (B2U)
                 (AG) (B3G) (B2G) (B1U) (B2G) (AG) (AU) (B2U) (B3G)
                 (B2U) (B1U) (B3U) (AG) (B2G) (B3G) (B1U) (B3G)
                 (B1G) (B2U) (AU) (B2U) (AG) (B3U) (AG) (B1U) (B3G)
                 (B1U) (B1G) (B3G) (B2G) (AG) (AU) (B1U) (B2U)
                 (AG) (B1G) (B3G) (B3U) (AU) (B1U) (B2G) (AG) (B3U)
                 (B1G) (B2U) (B3G) (B3U) (B2G) (AU) (B2G) (B1G)
                 (B2U) (B3U) (AU) (B1U) (AG) (B2G) (B2U) (B1U)
                 (AG) (AU) (B3G) (B2U) (B2G) (B3G) (AG) (B1U) (B1U)
                 (B2U) (B3G) (AG) (B2U) (B1U) (B2U) (B3G) (B1U)
                 (AG) (B1U) (B3G) (B1U) (AG) (B3G) (B2U) (B3G)
                 (B1U) (B2U) (AG) (AG) (B3G) (B2U) (B3G) (B1U)
                 (B1U) (B3G) (AG) (B2U) (B2U) (B1U) (AG) (B2U)
                 (B3G) (B1U) (B3G) (AG) (B1U) (B3G) (AG) (B1U)
                 (B2U) (AG) (B3G) (B1U) (B3G) (B2U) (B2U) (B3G)
                 (B1U) (B2U) (AG) (B1U) (AG) (B3G) (B1U) (B3G)
                 (AG) (B2U) (B1U) (AG) (B2U) (AG) (B1U) (AG) (B3G)
                 (B1U) (B3G) (B2U) (B1U) (B3G) (AG) (B1U) (B2U)
                 (B3G) (B1U) (AG) (B2U) (B3G) (B1U) (B2U) (B3G)
                 (B3G) (B1U) (AG) (B2U) (B1U) (B3G) (B2U) (AG)
                 (AG) (B1U) (B1U) (B2U) (B3G) (AG) (B1U) (AG) (B3G)
                 (B2U) (B1U) (B2U) (B3G) (AG) (B3G) (B1U) (AG)
                 (B2U) (AG) (B1U) (B2U) (B3G) (B1U) (B1U) (AG)
                 (B3G)
 The electronic state is 1-AG.
 Alpha  occ. eigenvalues --  -10.19310 -10.19269 -10.19231 -10.19229 -10.19227
 Alpha  occ. eigenvalues --  -10.19227 -10.19177 -10.19176 -10.19164 -10.19156
 Alpha  occ. eigenvalues --  -10.19132 -10.19127 -10.19110 -10.19108 -10.19059
 Alpha  occ. eigenvalues --  -10.19059 -10.19056 -10.19056 -10.18273 -10.18273
 Alpha  occ. eigenvalues --  -10.18273 -10.18272 -10.18267 -10.18266 -10.18229
 Alpha  occ. eigenvalues --  -10.18229 -10.18191 -10.18190 -10.18189 -10.18189
 Alpha  occ. eigenvalues --  -10.18168 -10.18168  -0.91958  -0.89556  -0.88389
 Alpha  occ. eigenvalues --   -0.85927  -0.85577  -0.83047  -0.81731  -0.81154
 Alpha  occ. eigenvalues --   -0.79610  -0.77002  -0.76451  -0.76230  -0.74533
 Alpha  occ. eigenvalues --   -0.73456  -0.72108  -0.70801  -0.65245  -0.64966
 Alpha  occ. eigenvalues --   -0.64921  -0.64279  -0.64246  -0.62543  -0.58865
 Alpha  occ. eigenvalues --   -0.58132  -0.57587  -0.55677  -0.54502  -0.54285
 Alpha  occ. eigenvalues --   -0.54010  -0.50778  -0.50181  -0.48927  -0.48844
 Alpha  occ. eigenvalues --   -0.48830  -0.47810  -0.46404  -0.44982  -0.44303
 Alpha  occ. eigenvalues --   -0.44091  -0.43968  -0.43904  -0.43214  -0.42743
 Alpha  occ. eigenvalues --   -0.42596  -0.41693  -0.41271  -0.40827  -0.40045
 Alpha  occ. eigenvalues --   -0.40007  -0.39919  -0.38761  -0.37593  -0.37367
 Alpha  occ. eigenvalues --   -0.37101  -0.36678  -0.36552  -0.35885  -0.34662
 Alpha  occ. eigenvalues --   -0.34127  -0.32398  -0.32170  -0.31929  -0.31706
 Alpha  occ. eigenvalues --   -0.30132  -0.27460  -0.26730  -0.26397  -0.24962
 Alpha  occ. eigenvalues --   -0.23761  -0.21453  -0.19189
 Alpha virt. eigenvalues --   -0.08691  -0.06382  -0.04490  -0.03810  -0.02048
 Alpha virt. eigenvalues --   -0.01947  -0.01125  -0.00851  -0.00414  -0.00322
 Alpha virt. eigenvalues --    0.00594   0.00652   0.01895   0.01991   0.02030
 Alpha virt. eigenvalues --    0.02560   0.02921   0.03632   0.03660   0.03748
 Alpha virt. eigenvalues --    0.04692   0.04843   0.05321   0.05489   0.05536
 Alpha virt. eigenvalues --    0.05720   0.05844   0.06604   0.07284   0.07639
 Alpha virt. eigenvalues --    0.08003   0.08112   0.08203   0.08226   0.08740
 Alpha virt. eigenvalues --    0.08874   0.09500   0.09775   0.09852   0.09928
 Alpha virt. eigenvalues --    0.10515   0.10797   0.11076   0.11110   0.11155
 Alpha virt. eigenvalues --    0.11272   0.11760   0.11877   0.11900   0.12271
 Alpha virt. eigenvalues --    0.12468   0.12489   0.12761   0.12839   0.13038
 Alpha virt. eigenvalues --    0.13288   0.13464   0.14105   0.14294   0.14624
 Alpha virt. eigenvalues --    0.14704   0.14818   0.15280   0.15700   0.15881
 Alpha virt. eigenvalues --    0.16220   0.16593   0.16716   0.16790   0.17323
 Alpha virt. eigenvalues --    0.17693   0.17716   0.18528   0.18740   0.18937
 Alpha virt. eigenvalues --    0.19089   0.19205   0.19492   0.19681   0.19881
 Alpha virt. eigenvalues --    0.20296   0.21147   0.21206   0.21255   0.21502
 Alpha virt. eigenvalues --    0.21689   0.21800   0.21821   0.21885   0.22105
 Alpha virt. eigenvalues --    0.22399   0.22951   0.23055   0.23129   0.23261
 Alpha virt. eigenvalues --    0.23497   0.23676   0.23766   0.23801   0.24247
 Alpha virt. eigenvalues --    0.24432   0.24435   0.24804   0.24807   0.24978
 Alpha virt. eigenvalues --    0.25058   0.26028   0.26550   0.26940   0.27168
 Alpha virt. eigenvalues --    0.27187   0.27289   0.27510   0.27716   0.28454
 Alpha virt. eigenvalues --    0.28474   0.28659   0.28975   0.29036   0.29461
 Alpha virt. eigenvalues --    0.29604   0.29928   0.30015   0.30582   0.30960
 Alpha virt. eigenvalues --    0.31005   0.31055   0.31246   0.31390   0.31416
 Alpha virt. eigenvalues --    0.31646   0.31887   0.32240   0.32534   0.32963
 Alpha virt. eigenvalues --    0.33115   0.33121   0.33540   0.33586   0.34935
 Alpha virt. eigenvalues --    0.35205   0.35574   0.35675   0.36594   0.36935
 Alpha virt. eigenvalues --    0.37002   0.37701   0.38738   0.39096   0.39144
 Alpha virt. eigenvalues --    0.39282   0.39647   0.40272   0.40702   0.41480
 Alpha virt. eigenvalues --    0.41568   0.42217   0.42293   0.42425   0.43627
 Alpha virt. eigenvalues --    0.44002   0.44005   0.44299   0.44334   0.45190
 Alpha virt. eigenvalues --    0.45191   0.45580   0.46595   0.47523   0.47526
 Alpha virt. eigenvalues --    0.48310   0.48473   0.50027   0.51099   0.51322
 Alpha virt. eigenvalues --    0.51591   0.51786   0.51903   0.52009   0.52048
 Alpha virt. eigenvalues --    0.52214   0.52537   0.52748   0.53257   0.53352
 Alpha virt. eigenvalues --    0.53505   0.53743   0.54174   0.54306   0.54402
 Alpha virt. eigenvalues --    0.54418   0.54798   0.54922   0.55297   0.55421
 Alpha virt. eigenvalues --    0.55720   0.55794   0.55838   0.55898   0.56005
 Alpha virt. eigenvalues --    0.57192   0.58055   0.58200   0.58316   0.58430
 Alpha virt. eigenvalues --    0.58827   0.59020   0.59063   0.59282   0.59372
 Alpha virt. eigenvalues --    0.59456   0.59483   0.59567   0.60031   0.60373
 Alpha virt. eigenvalues --    0.61079   0.61106   0.61689   0.62456   0.62487
 Alpha virt. eigenvalues --    0.62503   0.62513   0.62954   0.63287   0.63307
 Alpha virt. eigenvalues --    0.63413   0.63887   0.64846   0.65048   0.65089
 Alpha virt. eigenvalues --    0.65351   0.65553   0.65588   0.66978   0.67737
 Alpha virt. eigenvalues --    0.68090   0.68342   0.68511   0.69891   0.69969
 Alpha virt. eigenvalues --    0.70396   0.70665   0.70750   0.70783   0.71170
 Alpha virt. eigenvalues --    0.71234   0.71537   0.72038   0.72286   0.72336
 Alpha virt. eigenvalues --    0.72670   0.72831   0.72864   0.73127   0.73471
 Alpha virt. eigenvalues --    0.73711   0.73775   0.73951   0.74063   0.75199
 Alpha virt. eigenvalues --    0.75539   0.75555   0.75692   0.76081   0.76604
 Alpha virt. eigenvalues --    0.76652   0.77037   0.77061   0.77490   0.77750
 Alpha virt. eigenvalues --    0.78604   0.79684   0.79703   0.79915   0.80114
 Alpha virt. eigenvalues --    0.81071   0.81194   0.81402   0.81541   0.81646
 Alpha virt. eigenvalues --    0.81721   0.81842   0.82236   0.83097   0.83551
[...]
 0000654,-0.01661336,0.01132556,-0.00000263,0.00495312,0.01368185,-0.00
 001442,-0.01789041,0.00531543,-0.00000784,-0.01150007,0.01025578,0.000
 00653,0.00201874,-0.01318197,0.00000083,0.01322010,0.00926417,0.000001
 79,-0.00213730,0.01855715,0.00000005,0.00858936,-0.00284496,-0.0000028
 1,-0.00215624,0.00013954,0.00000511,0.00848849,-0.00427059,-0.00000239
 ,0.00145534,0.00307269,0.00000344,0.00166066,-0.01836442,0.00000021,0.
 00018191,-0.00008410,-0.00000010,-0.00015461,-0.00054355,0.00000007,-0
 .00014580,-0.00017433,-0.00000541,0.03527562,0.03062080,-0.00000367,-0
 .02367689,-0.00001189,0.00001251,0.01499819,-0.01060379,0.00000155,-0.
 00039076,0.00011636,-0.00000455,-0.00833274,0.00068336,-0.00000230,0.0
 0698591,-0.00676176,0.00000350,-0.01062665,-0.00070056,0.00000022,-0.0
 0009001,0.00013253,-0.00000015,-0.00025283,0.00005963,-0.00000260,0.00
 139191,-0.01306459,0.00000047,-0.00007500,-0.00015930,0.00000008,-0.00
 329546,0.01312890,0.00000037,0.00023322,0.00014638,-0.00000122,0.00017
 144,-0.00048574,-0.00000263,0.00370871,-0.00911097,0.00000069,-0.00029
 856,0.00012427,0.00000451,-0.00967330,-0.00517720,0.00000049,-0.000026
 59,0.00020289,0.00000025,0.00037874,0.02335358,-0.00000114,0.00006816,
 0.00012415,0.00000235,-0.00814700,-0.24265045,0.00000371,0.07471072,-0
 .18991117,-0.00000146,0.01599088,0.61844143,0.00443879,0.00000033,-0.0
 0000040,-0.00082850,-0.00000054,0.00000002,-0.00051301,0.00000039,0.,0
 .00002343,0.00000035,0.00000005,-0.00027856,-0.00000050,-0.00000002,0.
 00022525,0.00000037,0.00000038,0.00011669,-0.00000057,-0.00000005,0.00
 010766,-0.00000053,0.00000004,-0.00001244,0.00000033,-0.00000040,-0.00
 000176,0.00000041,0.00000040,0.00000904,-0.00000024,-0.00000008,0.0000
 0176,0.00000010,0.00000039,-0.00004361,0.00000004,-0.00000013,0.000000
 44,0.00000012,0.00000018,0.00004356,0.00000011,-0.00000002,-0.00008631
 ,0.00000013,-0.00000021,0.00002292,0.,0.,0.00000917,-0.00000001,0.,-0.
 00000039,0.,0.,0.00800235,0.00000014,0.00000016,0.00003955,0.00000005,
 0.,-0.00045116,0.00000015,-0.00000015,0.00011407,0.,0.,0.00001749,0.00
 000002,0.00000010,-0.00000338,0.00000009,-0.00000035,-0.00003235,-0.00
 000030,0.00000009,0.00000649,0.,0.,-0.00000893,-0.00000001,0.,-0.00000
 417,-0.00000006,-0.00000041,-0.00000869,0.,0.,0.00002080,-0.00000001,0
 .00000039,0.00000962,0.,0.,-0.00001676,0.,0.00000009,0.00005529,0.0000
 0010,-0.00000032,0.00001040,0.,0.,0.00015829,-0.00000028,0.00000006,-0
 .00001240,0.,0.,-0.00027754,-0.00000003,0.00000036,0.00006834,0.,0.,0.
 00316605,-0.00000022,-0.00000007,0.00463718,0.00000005,-0.00000013,-0.
 03495789,0.00000009,0.00000038,0.02316391,-0.00000008,0.00072173,0.001
 14222,0.00000020,0.00074827,0.00025835,-0.00000034,-0.00035297,-0.0000
 7053,-0.00000014,-0.00038446,0.00000331,0.00000016,0.00060136,-0.00012
 761,0.00000007,-0.00036204,-0.00016207,0.00000036,0.00068527,0.0000050
 8,0.00000020,0.00055625,-0.00007903,-0.00000016,-0.00028947,0.00045553
 ,-0.00000002,-0.00046999,-0.00043113,-0.00000005,0.00016736,-0.0002706
 1,0.,-0.00021910,-0.00015528,0.00000007,0.00006079,0.00002751,-0.00000
 013,-0.00029117,-0.00016961,0.00000006,0.00004318,-0.00003859,-0.00000
 009,-0.00024081,0.00032929,0.,-0.00000708,-0.00000104,0.,0.00000012,0.
 00000905,0.,0.00000602,0.00000301,0.00000014,-0.00256297,0.00413674,0.
 00000009,-0.00035654,-0.00114776,-0.00000031,-0.00069410,0.00057990,-0
 .00000004,-0.00000879,0.00004681,0.00000011,0.00006482,-0.00014155,0.0
 0000006,-0.00022167,0.00025290,-0.00000009,0.00032714,0.00010296,0.,0.
 00000843,0.00000273,0.,-0.00001351,-0.00001156,0.00000007,0.00009108,0
 .00045562,-0.00000001,-0.00000870,0.00000213,0.,0.00005471,-0.00044711
 ,0.,-0.00001081,-0.00000273,0.00000003,0.00003267,-0.00002843,0.000000
 07,-0.00013359,0.00029881,-0.00000002,0.00001971,-0.00000965,-0.000000
 11,0.00041110,0.00012233,-0.00000001,-0.00000230,-0.00001115,0.,0.0001
 7635,-0.00076418,0.00000003,0.00000085,-0.00004504,-0.00000006,0.00279
 359,0.00087018,-0.00000009,-0.01985545,-0.01565919,0.00000004,-0.26585
 330,-0.11906395,0.,0.28251651,-0.00000004,0.00177577,-0.00484112,0.000
 00011,0.00122449,-0.00040902,-0.00000019,-0.00049630,0.00004756,-0.000
 00008,-0.00034388,-0.00013202,0.00000009,0.00069393,-0.00051978,0.0000
 0004,-0.00226152,-0.00038946,0.00000021,0.00049915,-0.00008145,0.00000
 011,0.00062888,0.00007181,-0.00000009,-0.00027182,0.00047822,-0.000000
 01,-0.00062067,-0.00036915,-0.00000003,0.00008983,0.00023251,0.,0.0000
 2095,-0.00054518,0.00000004,-0.00023752,0.00010795,-0.00000007,-0.0001
 0468,-0.00009118,0.00000003,0.00011084,0.00001317,-0.00000005,-0.00054
 286,0.00025598,0.,-0.00002314,-0.00001860,0.,0.00000908,0.00000188,0.,
 -0.00000331,-0.00000205,0.00000008,0.00285437,-0.00144664,0.00000005,0
 .00057373,0.00070307,-0.00000018,-0.00024870,0.00006771,-0.00000002,-0
 .00000545,-0.00003155,0.00000007,0.00040677,0.00005748,0.00000003,-0.0
 0024729,0.00005916,-0.00000005,0.00054440,-0.00003040,0.,0.00000158,-0
 .00000923,0.,0.00001155,0.00000450,0.00000004,0.00017414,0.00040839,0.
 ,-0.00000733,0.00000728,0.,-0.00014087,-0.00046902,0.,-0.00000746,-0.0
 0000872,0.00000002,0.00034549,-0.00001763,0.00000004,-0.00016438,0.000
 12429,0.,0.00000965,-0.00003113,-0.00000007,0.00046098,0.00008546,0.,0
 .00000854,-0.00001148,0.,0.00026710,-0.00044915,0.00000002,0.00000228,
 -0.00003829,-0.00000003,-0.02815780,-0.01143300,-0.00000005,0.01531215
 ,0.01222265,0.00000002,-0.11944705,-0.12876315,0.,0.12816558,0.1324298
 3,0.00658612,-0.00000204,0.00000248,0.00507245,0.00000339,-0.00000015,
 -0.00018581,-0.00000246,0.00000004,0.00045493,-0.00000217,-0.00000030,
 -0.00141898,0.00000313,0.00000013,-0.00393928,-0.00000233,-0.00000236,
 -0.00028280,0.00000355,0.00000030,0.00013381,0.00000332,-0.00000025,-0
 .00001039,-0.00000207,0.00000249,-0.00013654,-0.00000256,-0.00000253,-
 0.00005478,0.00000153,0.00000047,0.00001460,-0.00000061,-0.00000242,0.
 00001960,-0.00000026,0.00000079,-0.00010514,-0.00000079,-0.00000111,0.
 00011846,-0.00000067,0.00000015,0.00030035,-0.00000084,0.00000132,-0.0
 0002486,-0.00000002,-0.00000002,-0.00000417,0.00000007,0.00000003,-0.0
 0000535,-0.00000002,-0.00000001,-0.00151741,-0.00000088,-0.00000100,-0
 .00017509,-0.00000034,0.00000001,0.00022876,-0.00000096,0.00000092,0.0
 0004783,0.,0.,-0.00003811,-0.00000010,-0.00000061,-0.00004790,-0.00000
 057,0.00000220,0.00012684,0.00000187,-0.00000057,-0.00000203,-0.000000
 02,0.,0.00002080,0.00000007,-0.00000002,0.00002274,0.00000039,0.000002
 56,0.00001036,-0.00000001,0.00000004,0.00002019,0.00000007,-0.00000244
 ,-0.00005042,-0.00000002,-0.00000004,-0.00001018,0.00000004,-0.0000005
 7,0.00518565,-0.00000063,0.00000197,-0.00027754,0.00000006,-0.00000002
 ,0.00771041,0.00000175,-0.00000040,-0.00049823,0.,-0.00000001,-0.05616
 002,0.00000018,-0.00000224,0.00389811,-0.00000002,-0.00000004,-0.06206
 961,0.00000139,0.00000041,0.00402951,-0.00000033,0.00000080,0.00560296
 ,-0.00000058,-0.00000236,-0.00242336,0.00000006,0.00000003,0.12404242,
 -0.00000064,-0.05608791,0.00449209,0.00000164,0.00825605,-0.00965135,-
 0.00000281,-0.00725246,-0.00070768,-0.00000116,-0.00293994,0.00175586,
 0.00000137,0.00367536,-0.00726563,0.00000055,-0.00757090,0.00801498,0.
 00000301,0.00628286,-0.00401327,0.00000164,0.00488637,-0.00549682,-0.0
 0000137,-0.00243600,0.00725155,-0.00000017,-0.00645259,-0.00447689,-0.
 00000037,0.00411183,-0.00543072,0.,-0.00232785,0.00142328,0.00000059,0
 .00044789,-0.00044578,-0.00000107,-0.00272427,0.00464258,0.00000050,-0
 .00027407,-0.00119968,-0.00000072,-0.00122461,0.00939327,-0.00000004,-
 0.00002099,0.00001421,0.00000002,0.00009017,0.00017335,-0.00000001,0.0
 0004468,0.00001956,0.00000113,-0.00782649,0.00283677,0.00000077,0.0031
 4030,-0.00157951,-0.00000261,-0.00321750,0.00537412,-0.00000032,0.0000
 1564,0.00014919,0.00000095,0.00296308,-0.00074803,0.00000048,-0.002345
 49,0.00326977,-0.00000073,0.00717003,-0.00271648,-0.00000005,-0.000068
 83,0.00006044,0.00000003,0.00005417,0.00014099,0.00000054,-0.00526623,
 0.01026856,-0.00000010,0.00004139,0.00017410,-0.00000002,-0.00024205,-
 0.01084320,-0.00000008,-0.00022006,-0.00013196,0.00000025,0.00363934,-
 0.00104410,0.00000055,-0.00827560,-0.00038008,-0.00000014,0.00017632,-
 0.00026712,-0.00000094,0.02413916,-0.03031942,-0.00000010,-0.00041952,
 -0.00033420,-0.00000005,-0.12481911,-0.03436345,0.00000024,0.00380315,
 0.02925749,-0.00000049,-0.24829191,0.07933154,-0.00000077,0.01103949,-
 0.00536347,0.00000030,-0.00418343,0.02627359,-0.00000008,0.00092765,-0
 .00161224,0.00000049,0.67552106,-0.00000297,-0.00326105,0.04461361,0.0
 0000754,0.01151161,-0.00346300,-0.00001295,-0.01023440,0.00470368,-0.0
 0000533,-0.01053480,-0.00356008,0.00000630,0.01912379,0.01094722,0.000
 00254,0.00276670,-0.03074974,0.00001390,0.01873157,0.00313926,0.000007
 56,0.01935330,0.00499191,-0.00000629,-0.01148296,0.00800094,-0.0000008
 0,-0.00715718,-0.01098487,-0.00000173,0.00406715,0.00162432,-0.0000000
 5,-0.01038787,-0.01305816,0.00000272,0.01198426,0.00376926,-0.00000493
 ,-0.02274196,-0.01581315,0.00000231,0.01475784,0.00076177,-0.00000332,
 -0.01818353,-0.00431173,-0.00000020,-0.00006935,0.00004588,0.00000010,
 0.00045465,0.00040675,-0.00000006,0.00023024,0.00016296,0.00000522,-0.
 01640492,-0.00763960,0.00000353,0.01235172,0.00032642,-0.00001206,-0.0
 1804009,0.00366413,-0.00000150,-0.00018363,0.00006868,0.00000439,0.002
 71272,-0.00384852,0.00000222,-0.00735148,0.01311968,-0.00000337,-0.003
 07499,0.00312087,-0.00000021,0.00004870,-0.00008941,0.00000014,0.00044
 654,-0.00046942,0.00000251,0.01030069,-0.00301396,-0.00000046,0.000053
 41,-0.00008855,-0.00000008,0.01087144,0.00505571,-0.00000036,0.0001086
 3,0.00018170,0.00000117,-0.00244506,-0.00670647,0.00000254,-0.00559260
 ,0.02335645,-0.00000067,0.00076375,-0.00044923,-0.00000434,-0.05026668
 ,-0.03745571,-0.00000047,-0.00013769,-0.00008294,-0.00000024,0.0343705
 9,-0.34387123,0.00000109,-0.00173445,-0.01126471,-0.00000226,0.0576680
 3,-0.14842859,-0.00000358,-0.00345162,0.00097693,0.00000140,0.03275855
 ,-0.05179895,-0.00000036,0.00172336,0.00189152,0.00000228,0.05239276,0
 .68972216,0.00545074,0.00000029,-0.00000036,0.00018611,-0.00000049,0.0
 0000002,-0.00040082,0.00000035,0.,0.00006806,0.00000031,0.00000004,-0.
 00041729,-0.00000045,-0.00000002,-0.00089219,0.00000034,0.00000034,-0.
 00011037,-0.00000051,-0.00000004,0.00005499,-0.00000048,0.00000004,-0.
 00002662,0.00000030,-0.00000036,0.00015203,0.00000037,0.00000036,-0.00
 004290,-0.00000022,-0.00000007,-0.00000367,0.00000009,0.00000035,0.000
 02822,0.00000004,-0.00000011,-0.00001444,0.00000011,0.00000016,-0.0000
 2687,0.00000010,-0.00000002,0.00012561,0.00000012,-0.00000019,-0.00000
 967,0.,0.,-0.00000869,0.,0.,0.00000321,0.,0.,0.00017031,0.00000013,0.0
 0000014,0.00007971,0.00000005,0.,-0.00003392,0.00000014,-0.00000013,0.
 00001586,0.,0.,-0.00003844,0.00000001,0.00000009,0.00001133,0.00000008
 ,-0.00000032,0.00004257,-0.00000027,0.00000008,0.00000255,0.,0.,0.0000
 0962,0.,0.,0.00001036,-0.00000006,-0.00000037,0.00002499,0.,0.,-0.0000
 5042,0.,0.00000035,-0.00001285,0.,0.,-0.00031122,0.,0.00000008,0.00013
 918,0.00000009,-0.00000028,0.00006834,0.,0.,0.00666292,-0.00000025,0.0
 0000006,-0.00001593,0.,0.,0.00389811,-0.00000003,0.00000032,-0.0039422
 6,0.,0.,0.00362092,-0.00000020,-0.00000006,-0.00029336,0.00000005,-0.0
 0000011,-0.00313490,0.00000008,0.00000034,0.00038937,0.,0.,-0.03434015
 ,-0.00000007,-0.00000033,0.02279297,0.00000003,-0.00237155,0.00418367,
 -0.00000007,-0.00072189,-0.00140576,0.00000012,-0.00026967,0.00032860,
 0.00000005,0.00008547,-0.00005214,-0.00000006,-0.00020426,-0.00032498,
 -0.00000002,0.00018943,0.00067886,-0.00000013,-0.00014432,-0.00027069,
 -0.00000007,-0.00003402,-0.00005075,0.00000006,0.00010753,0.00002953,0
 .,-0.00023479,0.00012322,0.00000002,-0.00012802,0.00006241,0.,0.000200
 95,-0.00007542,-0.00000002,-0.00041472,-0.00002477,0.00000005,0.000371
 22,0.00023132,-0.00000002,-0.00023955,-0.00002305,0.00000003,0.0001307
 3,0.00023192,0.,-0.00000959,-0.00000881,0.,-0.00000869,-0.00000731,0.,
 -0.00000631,-0.00000368,-0.00000005,0.00035641,0.00011781,-0.00000003,
 0.00004779,0.00016294,0.00000011,-0.00003388,0.00010276,0.00000001,-0.
 00002464,0.00001193,-0.00000004,0.00024716,0.00010502,-0.00000002,-0.0
 0006208,-0.00023297,0.00000003,0.00028226,-0.00007672,0.,0.00000246,-0
 .00000202,0.,-0.00001081,0.00000745,-0.00000002,0.00004137,0.00005362,
 0.,-0.00000997,0.00000060,0.,-0.00021990,-0.00010856,0.,-0.00000944,-0
 .00000646,-0.00000001,0.00017270,0.00006386,-0.00000002,-0.00000309,-0
 .00006878,0.,0.00000084,-0.00000228,0.00000004,0.00161457,0.00073011,0
 .,-0.00000339,-0.00000425,0.,0.00380313,0.00173529,-0.00000001,0.00082
 801,-0.00041418,0.00000002,-0.02033901,-0.01529892,0.00000003,-0.00016
 861,0.00047021,-0.00000001,0.00126744,-0.00201940,0.,0.00032853,0.0011
 9152,-0.00000002,-0.26667427,-0.11807087,0.,0.28231325,-0.00000005,0.0
 0280874,-0.00164071,0.00000013,0.00075016,0.00060955,-0.00000022,0.000
 12099,-0.00012735,-0.00000009,-0.00008422,-0.00017359,0.00000011,0.000
 05164,0.00028751,0.00000004,0.00045822,-0.00048487,0.00000024,0.000225
 13,0.00014758,0.00000013,0.00017658,0.00011677,-0.00000011,-0.00008124
 ,-0.00000356,-0.00000001,0.00000185,-0.00010907,-0.00000003,-0.0000029
 7,-0.00001695,0.,-0.00012720,-0.00015926,0.00000005,0.00017372,0.00007
 231,-0.00000009,-0.00026832,-0.00030830,0.00000004,0.00012875,0.000070
 05,-0.00000006,-0.00009213,-0.00006494,0.,0.00000498,-0.00000695,0.,0.
 00000211,0.00000725,0.,0.00000692,-0.00000470,0.00000009,-0.00006721,-
 0.00002476,0.00000006,0.00001029,-0.00001612,-0.00000021,-0.00013884,0
 .00005300,-0.00000003,0.00001163,-0.00000159,0.00000008,-0.00005845,-0
 .00004106,0.00000004,-0.00003546,0.00014565,-0.00000006,-0.00017421,0.
 00011582,0.,0.00000498,0.00000219,0.,0.00000270,-0.00000873,0.00000004
 ,0.00017470,-0.00008861,0.,0.00000059,-0.00000842,0.,0.00013246,0.0001
 8245,0.,0.00000646,0.00001067,0.00000002,0.00006813,-0.00055392,0.0000
 0004,-0.00154164,0.00012343,-0.00000001,0.00004501,-0.00003828,-0.0000
 0008,0.00186489,-0.00507740,0.,-0.00013409,-0.00008697,0.,-0.02925740,
 -0.01126377,0.00000002,0.00041420,0.00104444,-0.00000004,0.01406004,0.
 01078911,-0.00000006,-0.00032640,0.00014175,0.00000002,0.00120006,0.00
 105747,0.,-0.00045624,-0.00005840,0.00000004,-0.11794767,-0.12699727,0
 .,0.12790535,0.13237607,-0.00076860,0.00000047,-0.00000057,0.00468624,
 -0.00000078,0.00000004,0.00020032,0.00000057,0.,-0.00023662,0.00000050
 ,0.00000007,0.00003015,-0.00000072,-0.00000003,-0.00068261,0.00000054,
 0.00000054,0.00008110,-0.00000082,-0.00000007,-0.00004572,-0.00000077,
 0.00000006,-0.00000442,0.00000048,-0.00000057,0.00003490,0.00000059,0.
 00000058,0.00000584,-0.00000035,-0.00000011,-0.00000805,0.00000014,0.0
 0000056,0.00000953,0.00000006,-0.00000018,0.00000422,0.00000018,0.0000
 0026,-0.00000706,0.00000016,-0.00000004,0.00008076,0.00000019,-0.00000
 030,-0.00001255,0.,0.,-0.00000039,-0.00000002,0.,0.00000817,0.,0.,0.00
 314028,0.00000020,0.00000023,-0.00240428,0.00000008,0.,-0.00022582,0.0
 0000022,-0.00000021,0.00034770,0.,0.,0.00003002,0.00000002,0.00000014,
 0.00000457,0.00000013,-0.00000051,-0.00000541,-0.00000043,0.00000013,0
 .00000221,0.,0.,0.00000649,-0.00000002,0.,-0.00000535,-0.00000009,-0.0
 0000059,0.00000321,0.,0.,-0.00000202,-0.00000002,0.00000056,0.00000255
 ,0.,0.,-0.00000435,0.,0.00000013,0.00004656,0.00000014,-0.00000045,-0.
 00001240,-0.00000001,0.,0.00012832,-0.00000040,0.00000009,0.00000241,0
 .,0.,-0.00049823,-0.00000004,0.00000052,-0.00001593,0.,0.,0.00811974,-
 0.00000032,-0.00000009,-0.03533624,0.00000008,-0.00000018,0.00444521,0
 .00000013,0.00000054,-0.00489668,-0.00000001,0.,0.00013123,-0.00000011
 ,-0.00000053,0.00011894,0.,0.,0.02350206,0.00000002,-0.00077994,0.0000
 9112,-0.00000006,-0.00478538,-0.00101360,0.00000011,0.00043712,-0.0013
 3692,0.00000004,-0.00051193,-0.00016603,-0.00000005,0.00005189,0.00042
 371,-0.00000002,0.00013784,-0.00014953,-0.00000012,0.00029972,0.000244
 49,-0.00000006,0.00015344,0.00019667,0.00000005,-0.00016400,-0.0000548
 7,0.,0.00002693,-0.00010476,0.00000001,0.00032866,0.00025533,0.,-0.000
 16196,-0.00014349,-0.00000002,0.00033726,0.00004488,0.00000004,-0.0001
 7743,-0.00051838,-0.00000002,-0.00008072,0.00010859,0.00000003,0.00008
 229,-0.00033523,0.,-0.00000102,-0.00000616,0.,0.00000597,-0.00000333,0
 .,-0.00000611,-0.00000278,-0.00000004,0.00350897,-0.02809105,-0.000000
 03,0.00139228,-0.00140809,0.00000010,0.00016000,-0.00009838,0.00000001
 ,-0.00028348,0.00082143,-0.00000004,-0.00033055,-0.00006265,-0.0000000
 2,0.00007867,0.00009005,0.00000003,-0.00012895,0.00009844,0.,-0.000042
 89,0.00001660,0.,0.00000843,-0.00000158,-0.00000002,0.00004396,0.00022
 790,0.,-0.00000629,0.00000688,0.,-0.00006897,-0.00004856,0.,0.00000246
 ,-0.00000497,0.,-0.00020986,-0.00004536,-0.00000002,0.00007539,0.00002
 611,0.,-0.00000231,-0.00000854,0.00000004,-0.00013860,-0.00001806,0.,0
 .00000076,0.00000008,0.,-0.00041948,0.00013819,0.,-0.00000339,0.000134
 11,0.00000002,-0.00450412,0.00169584,0.00000003,-0.05923111,-0.0015696
 2,-0.00000001,0.00423194,0.02925867,0.,0.00099531,-0.00043847,-0.00000
 002,0.00073606,0.00125520,0.,-0.00004479,-0.00001758,0.,0.05898791,0.,
 -0.00041685,0.00049874,0.,-0.00245116,0.00084377,0.00000001,0.00035080
 ,-0.00053685,0.,-0.00028158,-0.00014907,0.,0.00006100,0.00022404,0.,0.
 00006461,-0.00018542,-0.00000001,0.00043442,0.00045181,0.,0.00012132,0
 .00015895,0.,-0.00013810,0.00000783,0.,-0.00014665,-0.00014719,0.,0.00
 021246,0.00017193,0.,-0.00015557,-0.00017679,0.,0.00025842,0.00004446,
 0.,-0.00010235,-0.00051326,0.,-0.00024561,0.00010545,0.,0.00016488,-0.
 00012788,0.,-0.00000502,-0.00001848,0.,0.00000308,-0.00000201,0.,-0.00
 000280,-0.00001014,0.,0.00117482,-0.01290827,0.,0.00214539,0.00073653,
 0.00000001,-0.00074590,-0.00021938,0.,-0.00080945,0.00054397,0.,-0.000
 00041,-0.00019264,0.,-0.00006812,0.00013335,0.,-0.00001887,0.00004100,
 0.,-0.00001661,0.00003187,0.,-0.00000270,-0.00000924,0.,0.00001988,0.0
 0016537,0.,-0.00000371,-0.00000467,0.,-0.00006045,-0.00009030,0.,0.000
 00202,0.00000218,0.,-0.00034104,-0.00007042,0.,0.00012514,0.00020415,0
 .,0.00001117,-0.00001149,0.,-0.00014027,0.00005550,0.,-0.00000008,-0.0
 0001370,0.,0.00033457,-0.00008432,0.,0.00000424,-0.00008701,0.,0.00303
 696,0.00135128,0.,-0.00086887,-0.33381934,0.,-0.00197082,-0.01236966,0
 .,0.00030064,0.00092639,0.,-0.00037132,-0.00050651,0.,0.00002478,0.000
 01251,0.,0.00051370,0.35554294\\0.,-0.00000058,-0.00000116,0.,-0.00000
 046,-0.00000072,0.,0.,0.00000055,0.,0.,-0.00000055,0.,-0.00000046,0.00
 000072,0.,-0.00000058,0.00000116,0.,0.00000046,-0.00000072,0.,0.000000
 46,0.00000072,0.,0.00000058,0.00000116,0.,0.00000058,-0.00000116,0.,-0
 .00000120,0.00000049,0.,-0.00000022,-0.00000095,0.,-0.00000040,0.00000
 016,0.,-0.00000071,-0.00000029,0.,0.,-0.00000042,0.,0.00000071,-0.0000
 0029,0.,0.,0.00000036,0.,0.00000035,0.00000059,0.,0.00000029,0.0000000
 8,0.,0.00000071,0.00000029,0.,0.,0.00000042,0.,-0.00000071,0.00000029,
 0.,0.,-0.00000036,0.,-0.00000040,-0.00000016,0.,-0.00000022,0.00000095
 ,0.,-0.00000120,-0.00000049,0.,0.00000029,-0.00000008,0.,0.00000035,-0
 .00000059,0.,0.00000063,-0.00000203,0.,0.,0.00000007,0.,0.00000063,0.0
 0000203,0.,0.,-0.00000007,0.,0.00000040,0.00000016,0.,0.00000022,-0.00
 000095,0.,-0.00000035,0.00000059,0.,0.00000120,0.00000049,0.,-0.000000
 29,0.00000008,0.,-0.00000063,-0.00000203,0.,0.,0.00000007,0.,0.0000012
 0,-0.00000049,0.,0.00000040,-0.00000016,0.,0.00000022,0.00000095,0.,-0
 .00000035,-0.00000059,0.,-0.00000063,0.00000203,0.,0.,-0.00000007,0.,-
 0.00000029,-0.00000008\\\@


 IT TAKES GREATER CHARACTER TO CARRY OFF GOOD FORTUNE THAN BAD.
                     FRENCH PROVERB.
 Job cpu time:       8 days  8 hours 49 minutes 55.9 seconds.
 Elapsed time:       0 days 11 hours 16 minutes 57.2 seconds.
 File lengths (MBytes):  RWF=  13673 Int=      0 D2E=      0 Chk=    430 Scr=      1
 Normal termination of Gaussian 16 at Tue Mar 14 01:36:33 2023.
