Linux dell09 4.9.0-0.bpo.9-amd64 #1 SMP Debian 4.9.168-1+deb9u3~deb8u1 (2019-06-17) x86_64 GNU/Linux
Fri Mar 10 11:02:09 CST 2023

 Entering Gaussian System, Link 0=/opt/g16/g16/g16
 Initial command:
 /opt/g16/g16/l1.exe "/s/Giogina/g16_1206170/Gau-230204.inp" -scrdir="/s/Giogina/g16_1206170/"
 Entering Link 1 = /opt/g16/g16/l1.exe PID=    230206.
  
 Copyright (c) 1988,1990,1992,1993,1995,1998,2003,2009,2016,
            Gaussian, Inc.  All Rights Reserved.
  
 This is part of the Gaussian(R) 16 program.  It is based on
 the Gaussian(R) 09 system (copyright 2009, Gaussian, Inc.),
 the Gaussian(R) 03 system (copyright 2003, Gaussian, Inc.),
 the Gaussian(R) 98 system (copyright 1998, Gaussian, Inc.),
 the Gaussian(R) 94 system (copyright 1995, Gaussian, Inc.),
 the Gaussian 92(TM) system (copyright 1992, Gaussian, Inc.),
 the Gaussian 90(TM) system (copyright 1990, Gaussian, Inc.),
 the Gaussian 88(TM) system (copyright 1988, Gaussian, Inc.),
 the Gaussian 86(TM) system (copyright 1986, Carnegie Mellon
 University), and the Gaussian 82(TM) system (copyright 1983,
 Carnegie Mellon University). Gaussian is a federally registered
 trademark of Gaussian, Inc.
  
 This software contains proprietary and confidential information,
 including trade secrets, belonging to Gaussian, Inc.
  
 This software is provided under written license and may be
 used, copied, transmitted, or stored only in accord with that
 written license.
  
 The following legend is applicable only to US Government
 contracts under FAR:
  
                    RESTRICTED RIGHTS LEGEND
  
 Use, reproduction and disclosure by the US Government is
 subject to restrictions as set forth in subparagraphs (a)
 and (c) of the Commercial Computer Software - Restricted
 Rights clause in FAR 52.227-19.
  
 Gaussian, Inc.
 340 Quinnipiac St., Bldg. 40, Wallingford CT 06492
  
  
 ---------------------------------------------------------------
 Warning -- This program may not be used in any manner that
 competes with the business of Gaussian, Inc. or will provide
 assistance to any competitor of Gaussian, Inc.  The licensee
 of this program is prohibited from giving any competitor of
 Gaussian, Inc. access to this program.  By using this program,
 the user acknowledges that Gaussian, Inc. is engaged in the
 business of creating and licensing software in the field of
 computational chemistry and represents and warrants to the
 licensee that it is not a competitor of Gaussian, Inc. and that
 it will not use this program in any manner prohibited above.
 ---------------------------------------------------------------
  

 Cite this work as:
 Gaussian 16, Revision A.03,
 M. J. Frisch, G. W. Trucks, H. B. Schlegel, G. E. Scuseria, 
 M. A. Robb, J. R. Cheeseman, G. Scalmani, V. Barone, 
 G. A. Petersson, H. Nakatsuji, X. Li, M. Caricato, A. V. Marenich, 
 J. Bloino, B. G. Janesko, R. Gomperts, B. Mennucci, H. P. Hratchian, 
 J. V. Ortiz, A. F. Izmaylov, J. L. Sonnenberg, D. Williams-Young, 
 F. Ding, F. Lipparini, F. Egidi, J. Goings, B. Peng, A. Petrone, 
 T. Henderson, D. Ranasinghe, V. G. Zakrzewski, J. Gao, N. Rega, 
 G. Zheng, W. Liang, M. Hada, M. Ehara, K. Toyota, R. Fukuda, 
 J. Hasegawa, M. Ishida, T. Nakajima, Y. Honda, O. Kitao, H. Nakai, 
 T. Vreven, K. Throssell, J. A. Montgomery, Jr., J. E. Peralta, 
 F. Ogliaro, M. J. Bearpark, J. J. Heyd, E. N. Brothers, K. N. Kudin, 
 V. N. Staroverov, T. A. Keith, R. Kobayashi, J. Normand, 
 K. Raghavachari, A. P. Rendell, J. C. Burant, S. S. Iyengar, 
 J. Tomasi, M. Cossi, J. M. Millam, M. Klene, C. Adamo, R. Cammi, 
 J. W. Ochterski, R. L. Martin, K. Morokuma, O. Farkas, 
 J. B. Foresman, and D. J. Fox, Gaussian, Inc., Wallingford CT, 2016.
 
 ******************************************
 Gaussian 16:  EM64L-G16RevA.03 25-Dec-2016
                10-Mar-2023 
 ******************************************
 %mem=20GB
 %nprocshared=32
 Will use up to   32 processors via shared memory.
 ----------------------------------------------------------------------
 # opt=tight td=(nstates=10,root=6) b3lyp/6-311++g(2d,2p) geom=connecti
 vity empiricaldispersion=gd3bj
 ----------------------------------------------------------------------
 1/7=10,18=20,19=15,26=3,38=1,57=2/1,3;
 2/9=110,12=2,17=6,18=5,40=1/2;
 3/5=4,6=6,7=1212,11=9,25=1,30=1,71=1,74=-5,124=41/1,2,3,8;
 4//1;
 5/5=2,38=5/2;
 8/6=1,10=2,107=6,108=10/1;
 9/8=6,15=2,41=10,42=1,70=2/14;
 10/5=4,28=6/2;
 6/7=2,8=2,9=2,10=2/1;
 7/12=6,13=5,14=6/1,2,3,16;
 1/7=10,18=20,19=15,26=3/3(2);
 2/9=110/2;
 99//99;
 2/9=110/2;
 3/5=4,6=6,7=1212,11=9,25=1,30=1,71=1,74=-5,124=41/1,2,3,8;
 4/5=5,16=3,69=1/1;
 5/5=2,38=5/2;
 8/6=1,10=2,107=6,108=10/1;
 9/8=6,15=2,41=10,42=1,49=4,70=2/14;
 10/5=4,28=6/2;
 7/12=6,13=5,14=6/1,2,3,16;
 1/7=10,18=20,19=15,26=3/3(-8);
 2/9=110/2;
 6/7=2,8=2,9=2,10=2/1;
 99//99;
 ---------------------------------------------------------
 Ovalene excited state optimization + freq with dispersion
 ---------------------------------------------------------
 Symbolic Z-matrix:
 Charge =  0 Multiplicity = 1
 C                     0.        2.45109   0.71361 
 C                     0.        1.23145   1.41802 
 C                     0.        0.        0.70855 
 C                     0.        0.       -0.70855 
 C                     0.        1.23145  -1.41802 
 C                     0.        2.45109  -0.71361 
 C                     0.       -1.23145   1.41802 
 C                     0.       -1.23145  -1.41802 
 C                     0.       -2.45109  -0.71361 
 C                     0.       -2.45109   0.71361 
 C                     0.       -3.69199  -1.42404 
 C                     0.       -3.65887  -2.84756 
 C                     0.       -2.47491  -3.53435 
 C                     0.       -1.22515  -2.85657 
 C                     0.        0.       -3.53517 
 C                     0.        1.22515  -2.85657 
 H                     0.        0.       -4.6174 
 H                     0.       -4.59722  -3.38557 
 H                     0.       -2.47569  -4.61601 
 C                     0.        1.22515   2.85657 
 C                     0.        0.        3.53517 
 C                     0.       -1.22515   2.85657 
 H                     0.        0.        4.6174 
 C                     0.       -2.47491   3.53435 
 C                     0.       -3.65887   2.84756 
 C                     0.       -3.69199   1.42404 
 H                     0.       -2.47569   4.61601 
 H                     0.       -4.59722   3.38557 
 C                     0.       -4.89502  -0.69326 
 H                     0.       -5.83296  -1.23161 
 C                     0.       -4.89502   0.69326 
 H                     0.       -5.83296   1.23161 
 C                     0.        2.47491  -3.53435 
 C                     0.        3.65887  -2.84756 
 H                     0.        4.59722  -3.38557 
 C                     0.        3.69199  -1.42404 
 H                     0.        2.47569  -4.61601 
 C                     0.        4.89502  -0.69326 
 H                     0.        5.83296  -1.23161 
 C                     0.        3.69199   1.42404 
 C                     0.        2.47491   3.53435 
 C                     0.        3.65887   2.84756 
 H                     0.        4.59722   3.38557 
 C                     0.        4.89502   0.69326 
 H                     0.        5.83296   1.23161 
 H                     0.        2.47569   4.61601 
 

 GradGradGradGradGradGradGradGradGradGradGradGradGradGradGradGradGradGrad
 Berny optimization.
 Initialization pass.
                           ----------------------------
                           !    Initial Parameters    !
                           ! (Angstroms and Degrees)  !
 --------------------------                            --------------------------
 ! Name  Definition              Value          Derivative Info.                !
 --------------------------------------------------------------------------------
 ! R1    R(1,2)                  1.4084         estimate D2E/DX2                !
 ! R2    R(1,6)                  1.4272         estimate D2E/DX2                !
 ! R3    R(1,40)                 1.4299         estimate D2E/DX2                !
 ! R4    R(2,3)                  1.4212         estimate D2E/DX2                !
 ! R5    R(2,20)                 1.4386         estimate D2E/DX2                !
 ! R6    R(3,4)                  1.4171         estimate D2E/DX2                !
 ! R7    R(3,7)                  1.4212         estimate D2E/DX2                !
 ! R8    R(4,5)                  1.4212         estimate D2E/DX2                !
 ! R9    R(4,8)                  1.4212         estimate D2E/DX2                !
 ! R10   R(5,6)                  1.4084         estimate D2E/DX2                !
 ! R11   R(5,16)                 1.4386         estimate D2E/DX2                !
 ! R12   R(6,36)                 1.4299         estimate D2E/DX2                !
 ! R13   R(7,10)                 1.4084         estimate D2E/DX2                !
 ! R14   R(7,22)                 1.4386         estimate D2E/DX2                !
 ! R15   R(8,9)                  1.4084         estimate D2E/DX2                !
 ! R16   R(8,14)                 1.4386         estimate D2E/DX2                !
 ! R17   R(9,10)                 1.4272         estimate D2E/DX2                !
 ! R18   R(9,11)                 1.4299         estimate D2E/DX2                !
 ! R19   R(10,26)                1.4299         estimate D2E/DX2                !
 ! R20   R(11,12)                1.4239         estimate D2E/DX2                !
 ! R21   R(11,29)                1.4076         estimate D2E/DX2                !
 ! R22   R(12,13)                1.3687         estimate D2E/DX2                !
 ! R23   R(12,18)                1.0816         estimate D2E/DX2                !
 ! R24   R(13,14)                1.4217         estimate D2E/DX2                !
 ! R25   R(13,19)                1.0817         estimate D2E/DX2                !
 ! R26   R(14,15)                1.4005         estimate D2E/DX2                !
 ! R27   R(15,16)                1.4005         estimate D2E/DX2                !
 ! R28   R(15,17)                1.0822         estimate D2E/DX2                !
 ! R29   R(16,33)                1.4217         estimate D2E/DX2                !
 ! R30   R(20,21)                1.4005         estimate D2E/DX2                !
 ! R31   R(20,41)                1.4217         estimate D2E/DX2                !
 ! R32   R(21,22)                1.4005         estimate D2E/DX2                !
 ! R33   R(21,23)                1.0822         estimate D2E/DX2                !
 ! R34   R(22,24)                1.4217         estimate D2E/DX2                !
 ! R35   R(24,25)                1.3687         estimate D2E/DX2                !
 ! R36   R(24,27)                1.0817         estimate D2E/DX2                !
 ! R37   R(25,26)                1.4239         estimate D2E/DX2                !
 ! R38   R(25,28)                1.0816         estimate D2E/DX2                !
 ! R39   R(26,31)                1.4076         estimate D2E/DX2                !
 ! R40   R(29,30)                1.0815         estimate D2E/DX2                !
 ! R41   R(29,31)                1.3865         estimate D2E/DX2                !
 ! R42   R(31,32)                1.0815         estimate D2E/DX2                !
 ! R43   R(33,34)                1.3687         estimate D2E/DX2                !
 ! R44   R(33,37)                1.0817         estimate D2E/DX2                !
 ! R45   R(34,35)                1.0816         estimate D2E/DX2                !
 ! R46   R(34,36)                1.4239         estimate D2E/DX2                !
 ! R47   R(36,38)                1.4076         estimate D2E/DX2                !
 ! R48   R(38,39)                1.0815         estimate D2E/DX2                !
 ! R49   R(38,44)                1.3865         estimate D2E/DX2                !
 ! R50   R(40,42)                1.4239         estimate D2E/DX2                !
 ! R51   R(40,44)                1.4076         estimate D2E/DX2                !
 ! R52   R(41,42)                1.3687         estimate D2E/DX2                !
 ! R53   R(41,46)                1.0817         estimate D2E/DX2                !
 ! R54   R(42,43)                1.0816         estimate D2E/DX2                !
 ! R55   R(44,45)                1.0815         estimate D2E/DX2                !
 ! A1    A(2,1,6)              120.009          estimate D2E/DX2                !
 ! A2    A(2,1,40)             120.1994         estimate D2E/DX2                !
 ! A3    A(6,1,40)             119.7917         estimate D2E/DX2                !
 ! A4    A(1,2,3)              120.0434         estimate D2E/DX2                !
 ! A5    A(1,2,20)             120.2599         estimate D2E/DX2                !
 ! A6    A(3,2,20)             119.6967         estimate D2E/DX2                !
 ! A7    A(2,3,4)              119.9476         estimate D2E/DX2                !
 ! A8    A(2,3,7)              120.1048         estimate D2E/DX2                !
 ! A9    A(4,3,7)              119.9476         estimate D2E/DX2                !
 ! A10   A(3,4,5)              119.9476         estimate D2E/DX2                !
 ! A11   A(3,4,8)              119.9476         estimate D2E/DX2                !
 ! A12   A(5,4,8)              120.1048         estimate D2E/DX2                !
 ! A13   A(4,5,6)              120.0434         estimate D2E/DX2                !
 ! A14   A(4,5,16)             119.6967         estimate D2E/DX2                !
 ! A15   A(6,5,16)             120.2599         estimate D2E/DX2                !
 ! A16   A(1,6,5)              120.009          estimate D2E/DX2                !
 ! A17   A(1,6,36)             119.7917         estimate D2E/DX2                !
 ! A18   A(5,6,36)             120.1994         estimate D2E/DX2                !
 ! A19   A(3,7,10)             120.0434         estimate D2E/DX2                !
 ! A20   A(3,7,22)             119.6967         estimate D2E/DX2                !
 ! A21   A(10,7,22)            120.2599         estimate D2E/DX2                !
 ! A22   A(4,8,9)              120.0434         estimate D2E/DX2                !
 ! A23   A(4,8,14)             119.6967         estimate D2E/DX2                !
 ! A24   A(9,8,14)             120.2599         estimate D2E/DX2                !
 ! A25   A(8,9,10)             120.009          estimate D2E/DX2                !
 ! A26   A(8,9,11)             120.1994         estimate D2E/DX2                !
 ! A27   A(10,9,11)            119.7917         estimate D2E/DX2                !
 ! A28   A(7,10,9)             120.009          estimate D2E/DX2                !
 ! A29   A(7,10,26)            120.1994         estimate D2E/DX2                !
 ! A30   A(9,10,26)            119.7917         estimate D2E/DX2                !
 ! A31   A(9,11,12)            118.4587         estimate D2E/DX2                !
 ! A32   A(9,11,29)            118.9316         estimate D2E/DX2                !
 ! A33   A(12,11,29)           122.6098         estimate D2E/DX2                !
 ! A34   A(11,12,13)           121.4504         estimate D2E/DX2                !
 ! A35   A(11,12,18)           118.4953         estimate D2E/DX2                !
 ! A36   A(13,12,18)           120.0543         estimate D2E/DX2                !
 ! A37   A(12,13,14)           121.4104         estimate D2E/DX2                !
 ! A38   A(12,13,19)           120.076          estimate D2E/DX2                !
 ! A39   A(14,13,19)           118.5136         estimate D2E/DX2                !
 ! A40   A(8,14,13)            118.2213         estimate D2E/DX2                !
 ! A41   A(8,14,15)            119.2324         estimate D2E/DX2                !
 ! A42   A(13,14,15)           122.5462         estimate D2E/DX2                !
 ! A43   A(14,15,16)           122.0369         estimate D2E/DX2                !
 ! A44   A(14,15,17)           118.9816         estimate D2E/DX2                !
 ! A45   A(16,15,17)           118.9816         estimate D2E/DX2                !
 ! A46   A(5,16,15)            119.2324         estimate D2E/DX2                !
 ! A47   A(5,16,33)            118.2213         estimate D2E/DX2                !
 ! A48   A(15,16,33)           122.5462         estimate D2E/DX2                !
 ! A49   A(2,20,21)            119.2324         estimate D2E/DX2                !
 ! A50   A(2,20,41)            118.2213         estimate D2E/DX2                !
 ! A51   A(21,20,41)           122.5462         estimate D2E/DX2                !
 ! A52   A(20,21,22)           122.0369         estimate D2E/DX2                !
 ! A53   A(20,21,23)           118.9816         estimate D2E/DX2                !
 ! A54   A(22,21,23)           118.9816         estimate D2E/DX2                !
 ! A55   A(7,22,21)            119.2324         estimate D2E/DX2                !
 ! A56   A(7,22,24)            118.2213         estimate D2E/DX2                !
 ! A57   A(21,22,24)           122.5462         estimate D2E/DX2                !
 ! A58   A(22,24,25)           121.4104         estimate D2E/DX2                !
 ! A59   A(22,24,27)           118.5136         estimate D2E/DX2                !
 ! A60   A(25,24,27)           120.076          estimate D2E/DX2                !
 ! A61   A(24,25,26)           121.4504         estimate D2E/DX2                !
 ! A62   A(24,25,28)           120.0543         estimate D2E/DX2                !
 ! A63   A(26,25,28)           118.4953         estimate D2E/DX2                !
 ! A64   A(10,26,25)           118.4587         estimate D2E/DX2                !
 ! A65   A(10,26,31)           118.9316         estimate D2E/DX2                !
 ! A66   A(25,26,31)           122.6098         estimate D2E/DX2                !
 ! A67   A(11,29,30)           118.8683         estimate D2E/DX2                !
 ! A68   A(11,29,31)           121.2768         estimate D2E/DX2                !
 ! A69   A(30,29,31)           119.8549         estimate D2E/DX2                !
 ! A70   A(26,31,29)           121.2768         estimate D2E/DX2                !
 ! A71   A(26,31,32)           118.8683         estimate D2E/DX2                !
 ! A72   A(29,31,32)           119.8549         estimate D2E/DX2                !
 ! A73   A(16,33,34)           121.4104         estimate D2E/DX2                !
 ! A74   A(16,33,37)           118.5136         estimate D2E/DX2                !
 ! A75   A(34,33,37)           120.076          estimate D2E/DX2                !
 ! A76   A(33,34,35)           120.0543         estimate D2E/DX2                !
 ! A77   A(33,34,36)           121.4504         estimate D2E/DX2                !
 ! A78   A(35,34,36)           118.4953         estimate D2E/DX2                !
 ! A79   A(6,36,34)            118.4587         estimate D2E/DX2                !
 ! A80   A(6,36,38)            118.9316         estimate D2E/DX2                !
 ! A81   A(34,36,38)           122.6098         estimate D2E/DX2                !
 ! A82   A(36,38,39)           118.8683         estimate D2E/DX2                !
 ! A83   A(36,38,44)           121.2768         estimate D2E/DX2                !
 ! A84   A(39,38,44)           119.8549         estimate D2E/DX2                !
 ! A85   A(1,40,42)            118.4587         estimate D2E/DX2                !
 ! A86   A(1,40,44)            118.9316         estimate D2E/DX2                !
 ! A87   A(42,40,44)           122.6098         estimate D2E/DX2                !
 ! A88   A(20,41,42)           121.4104         estimate D2E/DX2                !
 ! A89   A(20,41,46)           118.5136         estimate D2E/DX2                !
 ! A90   A(42,41,46)           120.076          estimate D2E/DX2                !
 ! A91   A(40,42,41)           121.4504         estimate D2E/DX2                !
 ! A92   A(40,42,43)           118.4953         estimate D2E/DX2                !
 ! A93   A(41,42,43)           120.0543         estimate D2E/DX2                !
 ! A94   A(38,44,40)           121.2768         estimate D2E/DX2                !
 ! A95   A(38,44,45)           119.8549         estimate D2E/DX2                !
 ! A96   A(40,44,45)           118.8683         estimate D2E/DX2                !
 ! D1    D(6,1,2,3)              0.0            estimate D2E/DX2                !
 ! D2    D(6,1,2,20)           180.0            estimate D2E/DX2                !
 ! D3    D(40,1,2,3)           180.0            estimate D2E/DX2                !
 ! D4    D(40,1,2,20)            0.0            estimate D2E/DX2                !
 ! D5    D(2,1,6,5)              0.0            estimate D2E/DX2                !
 ! D6    D(2,1,6,36)           180.0            estimate D2E/DX2                !
 ! D7    D(40,1,6,5)           180.0            estimate D2E/DX2                !
 ! D8    D(40,1,6,36)            0.0            estimate D2E/DX2                !
 ! D9    D(2,1,40,42)            0.0            estimate D2E/DX2                !
 ! D10   D(2,1,40,44)          180.0            estimate D2E/DX2                !
 ! D11   D(6,1,40,42)          180.0            estimate D2E/DX2                !
 ! D12   D(6,1,40,44)            0.0            estimate D2E/DX2                !
 ! D13   D(1,2,3,4)              0.0            estimate D2E/DX2                !
 ! D14   D(1,2,3,7)            180.0            estimate D2E/DX2                !
 ! D15   D(20,2,3,4)           180.0            estimate D2E/DX2                !
 ! D16   D(20,2,3,7)             0.0            estimate D2E/DX2                !
 ! D17   D(1,2,20,21)          180.0            estimate D2E/DX2                !
 ! D18   D(1,2,20,41)            0.0            estimate D2E/DX2                !
 ! D19   D(3,2,20,21)            0.0            estimate D2E/DX2                !
 ! D20   D(3,2,20,41)          180.0            estimate D2E/DX2                !
 ! D21   D(2,3,4,5)              0.0            estimate D2E/DX2                !
 ! D22   D(2,3,4,8)            180.0            estimate D2E/DX2                !
 ! D23   D(7,3,4,5)            180.0            estimate D2E/DX2                !
 ! D24   D(7,3,4,8)              0.0            estimate D2E/DX2                !
 ! D25   D(2,3,7,10)           180.0            estimate D2E/DX2                !
 ! D26   D(2,3,7,22)             0.0            estimate D2E/DX2                !
 ! D27   D(4,3,7,10)             0.0            estimate D2E/DX2                !
 ! D28   D(4,3,7,22)           180.0            estimate D2E/DX2                !
 ! D29   D(3,4,5,6)              0.0            estimate D2E/DX2                !
 ! D30   D(3,4,5,16)           180.0            estimate D2E/DX2                !
 ! D31   D(8,4,5,6)            180.0            estimate D2E/DX2                !
 ! D32   D(8,4,5,16)             0.0            estimate D2E/DX2                !
 ! D33   D(3,4,8,9)              0.0            estimate D2E/DX2                !
 ! D34   D(3,4,8,14)           180.0            estimate D2E/DX2                !
 ! D35   D(5,4,8,9)            180.0            estimate D2E/DX2                !
 ! D36   D(5,4,8,14)             0.0            estimate D2E/DX2                !
 ! D37   D(4,5,6,1)              0.0            estimate D2E/DX2                !
 ! D38   D(4,5,6,36)           180.0            estimate D2E/DX2                !
 ! D39   D(16,5,6,1)           180.0            estimate D2E/DX2                !
 ! D40   D(16,5,6,36)            0.0            estimate D2E/DX2                !
 ! D41   D(4,5,16,15)            0.0            estimate D2E/DX2                !
 ! D42   D(4,5,16,33)          180.0            estimate D2E/DX2                !
 ! D43   D(6,5,16,15)          180.0            estimate D2E/DX2                !
 ! D44   D(6,5,16,33)            0.0            estimate D2E/DX2                !
 ! D45   D(1,6,36,34)          180.0            estimate D2E/DX2                !
 ! D46   D(1,6,36,38)            0.0            estimate D2E/DX2                !
 ! D47   D(5,6,36,34)            0.0            estimate D2E/DX2                !
 ! D48   D(5,6,36,38)          180.0            estimate D2E/DX2                !
 ! D49   D(3,7,10,9)             0.0            estimate D2E/DX2                !
 ! D50   D(3,7,10,26)          180.0            estimate D2E/DX2                !
 ! D51   D(22,7,10,9)          180.0            estimate D2E/DX2                !
 ! D52   D(22,7,10,26)           0.0            estimate D2E/DX2                !
 ! D53   D(3,7,22,21)            0.0            estimate D2E/DX2                !
 ! D54   D(3,7,22,24)          180.0            estimate D2E/DX2                !
 ! D55   D(10,7,22,21)         180.0            estimate D2E/DX2                !
 ! D56   D(10,7,22,24)           0.0            estimate D2E/DX2                !
 ! D57   D(4,8,9,10)             0.0            estimate D2E/DX2                !
 ! D58   D(4,8,9,11)           180.0            estimate D2E/DX2                !
 ! D59   D(14,8,9,10)          180.0            estimate D2E/DX2                !
 ! D60   D(14,8,9,11)            0.0            estimate D2E/DX2                !
 ! D61   D(4,8,14,13)          180.0            estimate D2E/DX2                !
 ! D62   D(4,8,14,15)            0.0            estimate D2E/DX2                !
 ! D63   D(9,8,14,13)            0.0            estimate D2E/DX2                !
 ! D64   D(9,8,14,15)          180.0            estimate D2E/DX2                !
 ! D65   D(8,9,10,7)             0.0            estimate D2E/DX2                !
 ! D66   D(8,9,10,26)          180.0            estimate D2E/DX2                !
 ! D67   D(11,9,10,7)          180.0            estimate D2E/DX2                !
 ! D68   D(11,9,10,26)           0.0            estimate D2E/DX2                !
 ! D69   D(8,9,11,12)            0.0            estimate D2E/DX2                !
 ! D70   D(8,9,11,29)          180.0            estimate D2E/DX2                !
 ! D71   D(10,9,11,12)         180.0            estimate D2E/DX2                !
 ! D72   D(10,9,11,29)           0.0            estimate D2E/DX2                !
 ! D73   D(7,10,26,25)           0.0            estimate D2E/DX2                !
 ! D74   D(7,10,26,31)         180.0            estimate D2E/DX2                !
 ! D75   D(9,10,26,25)         180.0            estimate D2E/DX2                !
 ! D76   D(9,10,26,31)           0.0            estimate D2E/DX2                !
 ! D77   D(9,11,12,13)           0.0            estimate D2E/DX2                !
 ! D78   D(9,11,12,18)         180.0            estimate D2E/DX2                !
 ! D79   D(29,11,12,13)        180.0            estimate D2E/DX2                !
 ! D80   D(29,11,12,18)          0.0            estimate D2E/DX2                !
 ! D81   D(9,11,29,30)         180.0            estimate D2E/DX2                !
 ! D82   D(9,11,29,31)           0.0            estimate D2E/DX2                !
 ! D83   D(12,11,29,30)          0.0            estimate D2E/DX2                !
 ! D84   D(12,11,29,31)        180.0            estimate D2E/DX2                !
 ! D85   D(11,12,13,14)          0.0            estimate D2E/DX2                !
 ! D86   D(11,12,13,19)        180.0            estimate D2E/DX2                !
 ! D87   D(18,12,13,14)        180.0            estimate D2E/DX2                !
 ! D88   D(18,12,13,19)          0.0            estimate D2E/DX2                !
 ! D89   D(12,13,14,8)           0.0            estimate D2E/DX2                !
 ! D90   D(12,13,14,15)        180.0            estimate D2E/DX2                !
 ! D91   D(19,13,14,8)         180.0            estimate D2E/DX2                !
 ! D92   D(19,13,14,15)          0.0            estimate D2E/DX2                !
 ! D93   D(8,14,15,16)           0.0            estimate D2E/DX2                !
 ! D94   D(8,14,15,17)         180.0            estimate D2E/DX2                !
 ! D95   D(13,14,15,16)        180.0            estimate D2E/DX2                !
 ! D96   D(13,14,15,17)          0.0            estimate D2E/DX2                !
 ! D97   D(14,15,16,5)           0.0            estimate D2E/DX2                !
 ! D98   D(14,15,16,33)        180.0            estimate D2E/DX2                !
 ! D99   D(17,15,16,5)         180.0            estimate D2E/DX2                !
 ! D100  D(17,15,16,33)          0.0            estimate D2E/DX2                !
 ! D101  D(5,16,33,34)           0.0            estimate D2E/DX2                !
 ! D102  D(5,16,33,37)         180.0            estimate D2E/DX2                !
 ! D103  D(15,16,33,34)        180.0            estimate D2E/DX2                !
 ! D104  D(15,16,33,37)          0.0            estimate D2E/DX2                !
 ! D105  D(2,20,21,22)           0.0            estimate D2E/DX2                !
 ! D106  D(2,20,21,23)         180.0            estimate D2E/DX2                !
 ! D107  D(41,20,21,22)        180.0            estimate D2E/DX2                !
 ! D108  D(41,20,21,23)          0.0            estimate D2E/DX2                !
 ! D109  D(2,20,41,42)           0.0            estimate D2E/DX2                !
 ! D110  D(2,20,41,46)         180.0            estimate D2E/DX2                !
 ! D111  D(21,20,41,42)        180.0            estimate D2E/DX2                !
 ! D112  D(21,20,41,46)          0.0            estimate D2E/DX2                !
 ! D113  D(20,21,22,7)           0.0            estimate D2E/DX2                !
 ! D114  D(20,21,22,24)        180.0            estimate D2E/DX2                !
 ! D115  D(23,21,22,7)         180.0            estimate D2E/DX2                !
 ! D116  D(23,21,22,24)          0.0            estimate D2E/DX2                !
 ! D117  D(7,22,24,25)           0.0            estimate D2E/DX2                !
 ! D118  D(7,22,24,27)         180.0            estimate D2E/DX2                !
 ! D119  D(21,22,24,25)        180.0            estimate D2E/DX2                !
 ! D120  D(21,22,24,27)          0.0            estimate D2E/DX2                !
 ! D121  D(22,24,25,26)          0.0            estimate D2E/DX2                !
 ! D122  D(22,24,25,28)        180.0            estimate D2E/DX2                !
 ! D123  D(27,24,25,26)        180.0            estimate D2E/DX2                !
 ! D124  D(27,24,25,28)          0.0            estimate D2E/DX2                !
 ! D125  D(24,25,26,10)          0.0            estimate D2E/DX2                !
 ! D126  D(24,25,26,31)        180.0            estimate D2E/DX2                !
 ! D127  D(28,25,26,10)        180.0            estimate D2E/DX2                !
 ! D128  D(28,25,26,31)          0.0            estimate D2E/DX2                !
 ! D129  D(10,26,31,29)          0.0            estimate D2E/DX2                !
 ! D130  D(10,26,31,32)        180.0            estimate D2E/DX2                !
 ! D131  D(25,26,31,29)        180.0            estimate D2E/DX2                !
 ! D132  D(25,26,31,32)          0.0            estimate D2E/DX2                !
 ! D133  D(11,29,31,26)          0.0            estimate D2E/DX2                !
 ! D134  D(11,29,31,32)        180.0            estimate D2E/DX2                !
 ! D135  D(30,29,31,26)        180.0            estimate D2E/DX2                !
 ! D136  D(30,29,31,32)          0.0            estimate D2E/DX2                !
 ! D137  D(16,33,34,35)        180.0            estimate D2E/DX2                !
 ! D138  D(16,33,34,36)          0.0            estimate D2E/DX2                !
 ! D139  D(37,33,34,35)          0.0            estimate D2E/DX2                !
 ! D140  D(37,33,34,36)        180.0            estimate D2E/DX2                !
 ! D141  D(33,34,36,6)           0.0            estimate D2E/DX2                !
 ! D142  D(33,34,36,38)        180.0            estimate D2E/DX2                !
 ! D143  D(35,34,36,6)         180.0            estimate D2E/DX2                !
 ! D144  D(35,34,36,38)          0.0            estimate D2E/DX2                !
 ! D145  D(6,36,38,39)         180.0            estimate D2E/DX2                !
 ! D146  D(6,36,38,44)           0.0            estimate D2E/DX2                !
 ! D147  D(34,36,38,39)          0.0            estimate D2E/DX2                !
 ! D148  D(34,36,38,44)        180.0            estimate D2E/DX2                !
 ! D149  D(36,38,44,40)          0.0            estimate D2E/DX2                !
 ! D150  D(36,38,44,45)        180.0            estimate D2E/DX2                !
 ! D151  D(39,38,44,40)        180.0            estimate D2E/DX2                !
 ! D152  D(39,38,44,45)          0.0            estimate D2E/DX2                !
 ! D153  D(1,40,42,41)           0.0            estimate D2E/DX2                !
 ! D154  D(1,40,42,43)         180.0            estimate D2E/DX2                !
 ! D155  D(44,40,42,41)        180.0            estimate D2E/DX2                !
 ! D156  D(44,40,42,43)          0.0            estimate D2E/DX2                !
 ! D157  D(1,40,44,38)           0.0            estimate D2E/DX2                !
 ! D158  D(1,40,44,45)         180.0            estimate D2E/DX2                !
 ! D159  D(42,40,44,38)        180.0            estimate D2E/DX2                !
 ! D160  D(42,40,44,45)          0.0            estimate D2E/DX2                !
 ! D161  D(20,41,42,40)          0.0            estimate D2E/DX2                !
 ! D162  D(20,41,42,43)        180.0            estimate D2E/DX2                !
 ! D163  D(46,41,42,40)        180.0            estimate D2E/DX2                !
 ! D164  D(46,41,42,43)          0.0            estimate D2E/DX2                !
 --------------------------------------------------------------------------------
 Trust Radius=3.00D-01 FncErr=1.00D-07 GrdErr=1.00D-06 EigMax=2.50D+02 EigMin=1.00D-04
 Number of steps in this run=    276 maximum allowed number of steps=    276.
 GradGradGradGradGradGradGradGradGradGradGradGradGradGradGradGradGradGrad

                          Input orientation:                          
 ---------------------------------------------------------------------
 Center     Atomic      Atomic             Coordinates (Angstroms)
 Number     Number       Type             X           Y           Z
 ---------------------------------------------------------------------
      1          6           0        0.000000    2.451090    0.713610
      2          6           0        0.000000    1.231452    1.418023
      3          6           0        0.000000    0.000000    0.708545
      4          6           0        0.000000    0.000000   -0.708545
      5          6           0        0.000000    1.231452   -1.418023
      6          6           0        0.000000    2.451090   -0.713610
      7          6           0        0.000000   -1.231452    1.418023
      8          6           0        0.000000   -1.231452   -1.418023
      9          6           0        0.000000   -2.451090   -0.713610
     10          6           0        0.000000   -2.451090    0.713610
     11          6           0        0.000000   -3.691992   -1.424042
     12          6           0        0.000000   -3.658867   -2.847556
     13          6           0        0.000000   -2.474912   -3.534351
     14          6           0        0.000000   -1.225152   -2.856571
     15          6           0        0.000000    0.000000   -3.535168
     16          6           0        0.000000    1.225152   -2.856571
     17          1           0        0.000000    0.000000   -4.617405
     18          1           0        0.000000   -4.597217   -3.385569
     19          1           0        0.000000   -2.475693   -4.616008
     20          6           0        0.000000    1.225152    2.856571
     21          6           0        0.000000    0.000000    3.535168
     22          6           0        0.000000   -1.225152    2.856571
     23          1           0        0.000000    0.000000    4.617405
     24          6           0        0.000000   -2.474912    3.534351
     25          6           0        0.000000   -3.658867    2.847556
     26          6           0        0.000000   -3.691992    1.424042
     27          1           0        0.000000   -2.475693    4.616008
     28          1           0        0.000000   -4.597217    3.385569
     29          6           0        0.000000   -4.895022   -0.693256
     30          1           0        0.000000   -5.832963   -1.231614
     31          6           0        0.000000   -4.895022    0.693256
     32          1           0        0.000000   -5.832963    1.231614
     33          6           0        0.000000    2.474912   -3.534351
     34          6           0        0.000000    3.658867   -2.847556
     35          1           0        0.000000    4.597217   -3.385569
     36          6           0        0.000000    3.691992   -1.424042
     37          1           0        0.000000    2.475693   -4.616008
     38          6           0        0.000000    4.895022   -0.693256
     39          1           0        0.000000    5.832963   -1.231614
     40          6           0        0.000000    3.691992    1.424042
     41          6           0        0.000000    2.474912    3.534351
     42          6           0        0.000000    3.658867    2.847556
     43          1           0        0.000000    4.597217    3.385569
     44          6           0        0.000000    4.895022    0.693256
     45          1           0        0.000000    5.832963    1.231614
     46          1           0        0.000000    2.475693    4.616008
 ---------------------------------------------------------------------
                    Distance matrix (angstroms):
                    1          2          3          4          5
     1  C    0.000000
     2  C    1.408445   0.000000
     3  C    2.451095   1.421208   0.000000
     4  C    2.833790   2.457390   1.417091   0.000000
     5  C    2.455887   2.836047   2.457390   1.421208   0.000000
     6  C    1.427220   2.455887   2.833790   2.451095   1.408445
     7  C    3.749308   2.462903   1.421208   2.457390   3.756202
     8  C    4.254994   3.756202   2.457390   1.421208   2.462903
     9  C    5.105715   4.254994   2.833790   2.451095   3.749308
    10  C    4.902180   3.749308   2.451095   2.833790   4.254994
    11  C    6.504384   5.684860   4.263652   3.760683   4.923447
    12  C    7.072021   6.489252   5.102271   4.238240   5.094976
    13  C    6.504665   6.185721   4.911961   3.756377   4.268017
    14  C    5.124544   4.930219   3.769755   2.472855   2.846809
    15  C    4.905095   5.103977   4.243714   2.826623   2.449240
    16  C    3.774800   4.274599   3.769755   2.472855   1.438561
    17  H    5.867500   6.159778   5.325950   3.908859   3.428194
    18  H    8.153644   7.553005   6.155987   5.319855   6.151798
    19  H    7.257962   7.081840   5.871961   4.625723   4.895919
    20  C    2.468847   1.438561   2.472855   3.769755   4.274599
    21  C    3.737517   2.449240   2.826623   4.243714   5.103977
    22  C    4.255237   2.846809   2.472855   3.769755   4.930219
    23  H    4.609496   3.428194   3.908859   5.325950   6.159778
    24  C    5.676449   4.268017   3.756377   4.911961   6.185721
    25  C    6.471886   5.094976   4.238240   5.102271   6.489252
    26  C    6.184025   4.923447   3.760683   4.263652   5.684860
    27  H    6.285053   4.895919   4.625723   5.871961   7.081840
    28  H    7.537771   6.151798   5.319855   6.155987   7.553005
    29  C    7.479615   6.480060   5.091786   4.895046   6.169195
    30  H    8.509373   7.544967   6.147168   5.856369   7.066873
    31  C    7.346140   6.169195   4.895046   5.091786   6.480060
    32  H    8.300232   7.066873   5.856369   6.147168   7.544967
    33  C    4.248028   5.106095   4.911961   3.756377   2.454595
    34  C    3.760403   4.907903   5.102271   4.238240   2.817075
    35  H    4.627000   5.865397   6.155987   5.319855   3.898668
    36  C    2.471718   3.759201   4.263652   3.760683   2.460548
    37  H    5.329675   6.160980   5.871961   4.625723   3.431507
    38  C    2.819943   4.228386   5.091786   4.895046   3.734573
    39  H    3.901405   5.309848   6.147168   5.856369   4.605285
    40  C    1.429878   2.460548   3.760683   4.263652   3.759201
    41  C    2.820841   2.454595   3.756377   4.911961   5.106095
    42  C    2.452030   2.817075   4.238240   5.102271   4.907903
    43  H    3.427131   3.898668   5.319855   6.155987   5.865397
    44  C    2.444017   3.734573   4.895046   5.091786   4.228386
    45  H    3.421314   4.605285   5.856369   6.147168   5.309848
    46  H    3.902475   3.431507   4.625723   5.871961   6.160980
                    6          7          8          9         10
     6  C    0.000000
     7  C    4.254994   0.000000
     8  C    3.749308   2.836047   0.000000
     9  C    4.902180   2.455887   1.408445   0.000000
    10  C    5.105715   1.408445   2.455887   1.427220   0.000000
    11  C    6.184025   3.759201   2.460548   1.429878   2.471718
    12  C    6.471886   4.907903   2.817075   2.452030   3.760403
    13  C    5.676449   5.106095   2.454595   2.820841   4.248028
    14  C    4.255237   4.274599   1.438561   2.468847   3.774800
    15  C    3.737517   5.103977   2.449240   3.737517   4.905095
    16  C    2.468847   4.930219   2.846809   4.255237   5.124544
    17  H    4.609496   6.159778   3.428194   4.609496   5.867500
    18  H    7.537771   5.865397   3.898668   3.427131   4.627000
    19  H    6.285053   6.160980   3.431507   3.902475   5.329675
    20  C    3.774800   2.846809   4.930219   5.124544   4.255237
    21  C    4.905095   2.449240   5.103977   4.905095   3.737517
    22  C    5.124544   1.438561   4.274599   3.774800   2.468847
    23  H    5.867500   3.428194   6.159778   5.867500   4.609496
    24  C    6.504665   2.454595   5.106095   4.248028   2.820841
    25  C    7.072021   2.817075   4.907903   3.760403   2.452030
    26  C    6.504384   2.460548   3.759201   2.471718   1.429878
    27  H    7.257962   3.431507   6.160980   5.329675   3.902475
    28  H    8.153644   3.898668   5.865397   4.627000   3.427131
    29  C    7.346140   4.228386   3.734573   2.444017   2.819943
    30  H    8.300232   5.309848   4.605285   3.421314   3.901405
    31  C    7.479615   3.734573   4.228386   2.819943   2.444017
    32  H    8.509373   4.605285   5.309848   3.901405   3.421314
    33  C    2.820841   6.185721   4.268017   5.676449   6.504665
    34  C    2.452030   6.489252   5.094976   6.471886   7.072021
    35  H    3.427131   7.553005   6.151798   7.537771   8.153644
    36  C    1.429878   5.684860   4.923447   6.184025   6.504384
    37  H    3.902475   7.081840   4.895919   6.285053   7.257962
    38  C    2.444017   6.480060   6.169195   7.346140   7.479615
    39  H    3.421314   7.544967   7.066873   8.300232   8.509373
    40  C    2.471718   4.923447   5.684860   6.504384   6.184025
    41  C    4.248028   4.268017   6.185721   6.504665   5.676449
    42  C    3.760403   5.094976   6.489252   7.072021   6.471886
    43  H    4.627000   6.151798   7.553005   8.153644   7.537771
    44  C    2.819943   6.169195   6.480060   7.479615   7.346140
    45  H    3.901405   7.066873   7.544967   8.509373   8.300232
    46  H    5.329675   4.895919   7.081840   7.257962   6.285053
                   11         12         13         14         15
    11  C    0.000000
    12  C    1.423900   0.000000
    13  C    2.436121   1.368736   0.000000
    14  C    2.852619   2.433732   1.421719   0.000000
    15  C    4.252959   3.722918   2.474912   1.400533   0.000000
    16  C    5.121567   4.884028   3.761630   2.450305   1.400533
    17  H    4.881431   4.064440   2.701517   2.145119   1.082236
    18  H    2.160329   1.081646   2.127514   3.413306   4.599650
    19  H    3.415850   2.127751   1.081657   2.158580   2.701346
    20  C    6.519352   7.509375   7.384738   6.216428   6.508097
    21  C    6.182602   7.357070   7.490213   6.508097   7.070337
    22  C    4.940540   6.201615   6.511972   5.713142   6.508097
    23  H    7.080245   8.313420   8.519173   7.573725   8.152573
    24  C    5.105579   6.490800   7.068702   6.511972   7.490213
    25  C    4.271726   5.695112   6.490800   6.201615   7.357070
    26  C    2.848083   4.271726   5.105579   4.940540   6.182602
    27  H    6.161297   7.556764   8.150359   7.576495   8.518845
    28  H    4.894057   6.303360   7.238057   7.094726   8.308490
    29  C    1.407597   2.483765   3.732124   4.260032   5.660186
    30  H    2.149601   2.708866   4.071744   4.885939   6.271349
    31  C    2.435207   3.750391   4.871303   5.105802   6.468448
    32  H    3.411197   4.622372   5.830174   6.159965   7.532972
    33  C    6.517983   6.172110   4.949824   3.761630   2.474912
    34  C    7.487424   7.317735   6.172110   4.884028   3.722918
    35  H    8.518132   8.273596   7.073694   5.846351   4.599650
    36  C    7.383983   7.487424   6.517983   5.121567   4.252959
    37  H    6.944709   6.384375   5.067393   4.097789   2.701346
    38  C    8.618054   8.821000   7.898591   6.491261   5.660186
    39  H    9.526898   9.628401   8.621101   7.242753   6.271349
    40  C    7.914214   8.501863   7.913050   6.519352   6.182602
    41  C    7.913050   8.851666   8.629444   7.384738   7.490213
    42  C    8.501863   9.272731   8.851666   7.509375   7.357070
    43  H    9.583493  10.344795   9.894458   8.536059   8.308490
    44  C    8.844193   9.257774   8.496387   7.075154   6.468448
    45  H    9.888239  10.331237   9.577850   8.156607   7.532972
    46  H    8.632643   9.661139   9.536081   8.338806   8.518845
                   16         17         18         19         20
    16  C    0.000000
    17  H    2.145119   0.000000
    18  H    5.846351   4.759393   0.000000
    19  H    4.097789   2.475693   2.452518   0.000000
    20  C    5.713142   7.573725   8.536059   8.338806   0.000000
    21  C    6.508097   8.152573   8.308490   8.518845   1.400533
    22  C    6.216428   7.573725   7.094726   7.576495   2.450305
    23  H    7.573725   9.234809   9.229409   9.559548   2.145119
    24  C    7.384738   8.519173   7.238057   8.150359   3.761630
    25  C    7.509375   8.313420   6.303360   7.556764   4.884028
    26  C    6.519352   7.080245   4.894057   6.161297   5.121567
    27  H    8.338806   9.559548   8.278049   9.232016   4.097789
    28  H    8.536059   9.229409   6.771138   8.278049   5.846351
    29  C    6.491261   6.273769   2.708734   4.608811   7.075154
    30  H    7.242753   6.744407   2.483262   4.767114   8.156607
    31  C    7.075154   7.222490   4.089683   5.834504   6.491261
    32  H    8.156607   8.260416   4.779692   6.742844   7.242753
    33  C    1.421719   2.701517   7.073694   5.067393   6.511972
    34  C    2.433732   4.064440   8.273596   6.384375   6.201615
    35  H    3.413306   4.759393   9.194434   7.179139   7.094726
    36  C    2.852619   4.881431   8.518132   6.944709   4.940540
    37  H    2.158580   2.475693   7.179139   4.951385   7.576495
    38  C    4.260032   6.273769   9.866669   8.349576   5.105802
    39  H    4.885939   6.744407  10.650266   8.971503   6.159965
    40  C    4.940540   7.080245   9.583493   8.632643   2.852619
    41  C    6.511972   8.519173   9.894458   9.536081   1.421719
    42  C    6.201615   8.313420  10.344795   9.661139   2.433732
    43  H    7.094726   9.229409  11.418666  10.679480   3.413306
    44  C    5.105802   7.222490  10.331477   9.083816   4.260032
    45  H    6.159965   8.260416  11.406447  10.160140   4.885939
    46  H    7.576495   9.559548  10.679480  10.475988   2.158580
                   21         22         23         24         25
    21  C    0.000000
    22  C    1.400533   0.000000
    23  H    1.082236   2.145119   0.000000
    24  C    2.474912   1.421719   2.701517   0.000000
    25  C    3.722918   2.433732   4.064440   1.368736   0.000000
    26  C    4.252959   2.852619   4.881431   2.436121   1.423900
    27  H    2.701346   2.158580   2.475693   1.081657   2.127751
    28  H    4.599650   3.413306   4.759393   2.127514   1.081646
    29  C    6.468448   5.105802   7.222490   4.871303   3.750391
    30  H    7.532972   6.159965   8.260416   5.830174   4.622372
    31  C    5.660186   4.260032   6.273769   3.732124   2.483765
    32  H    6.271349   4.885939   6.744407   4.071744   2.708866
    33  C    7.490213   7.384738   8.519173   8.629444   8.851666
    34  C    7.357070   7.509375   8.313420   8.851666   9.272731
    35  H    8.308490   8.536059   9.229409   9.894458  10.344795
    36  C    6.182602   6.519352   7.080245   7.913050   8.501863
    37  H    8.518845   8.338806   9.559548   9.536081   9.661139
    38  C    6.468448   7.075154   7.222490   8.496387   9.257774
    39  H    7.532972   8.156607   8.260416   9.577850  10.331237
    40  C    4.252959   5.121567   4.881431   6.517983   7.487424
    41  C    2.474912   3.761630   2.701517   4.949824   6.172110
    42  C    3.722918   4.884028   4.064440   6.172110   7.317735
    43  H    4.599650   5.846351   4.759393   7.073694   8.273596
    44  C    5.660186   6.491261   6.273769   7.898591   8.821000
    45  H    6.271349   7.242753   6.744407   8.621101   9.628401
    46  H    2.701346   4.097789   2.475693   5.067393   6.384375
                   26         27         28         29         30
    26  C    0.000000
    27  H    3.415850   0.000000
    28  H    2.160329   2.452518   0.000000
    29  C    2.435207   5.834504   4.089683   0.000000
    30  H    3.411197   6.742844   4.779692   1.081463   0.000000
    31  C    1.407597   4.608811   2.708734   1.386512   2.141228
    32  H    2.149601   4.767114   2.483262   2.141228   2.463229
    33  C    7.913050   9.536081   9.894458   7.898591   8.621101
    34  C    8.501863   9.661139  10.344795   8.821000   9.628401
    35  H    9.583493  10.679480  11.418666   9.866669  10.650266
    36  C    7.914214   8.632643   9.583493   8.618054   9.526898
    37  H    8.632643  10.475988  10.679480   8.349576   8.971503
    38  C    8.844193   9.083816  10.331477   9.790044  10.741484
    39  H    9.888239  10.160140  11.406447  10.741484  11.665925
    40  C    7.383983   6.944709   8.518132   8.844193   9.888239
    41  C    6.517983   5.067393   7.073694   8.496387   9.577850
    42  C    7.487424   6.384375   8.273596   9.257774  10.331237
    43  H    8.518132   7.179139   9.194434  10.331477  11.406447
    44  C    8.618054   8.349576   9.866669   9.887739  10.899302
    45  H    9.526898   8.971503  10.650266  10.899302  11.923142
    46  H    6.944709   4.951385   7.179139   9.083816  10.160140
                   31         32         33         34         35
    31  C    0.000000
    32  H    1.081463   0.000000
    33  C    8.496387   9.577850   0.000000
    34  C    9.257774  10.331237   1.368736   0.000000
    35  H   10.331477  11.406447   2.127514   1.081646   0.000000
    36  C    8.844193   9.888239   2.436121   1.423900   2.160329
    37  H    9.083816  10.160140   1.081657   2.127751   2.452518
    38  C    9.887739  10.899302   3.732124   2.483765   2.708734
    39  H   10.899302  11.923142   4.071744   2.708866   2.483262
    40  C    8.618054   9.526898   5.105579   4.271726   4.894057
    41  C    7.898591   8.621101   7.068702   6.490800   7.238057
    42  C    8.821000   9.628401   6.490800   5.695112   6.303360
    43  H    9.866669  10.650266   7.238057   6.303360   6.771138
    44  C    9.790044  10.741484   4.871303   3.750391   4.089683
    45  H   10.741484  11.665925   5.830174   4.622372   4.779692
    46  H    8.349576   8.971503   8.150359   7.556764   8.278049
                   36         37         38         39         40
    36  C    0.000000
    37  H    3.415850   0.000000
    38  C    1.407597   4.608811   0.000000
    39  H    2.149601   4.767114   1.081463   0.000000
    40  C    2.848083   6.161297   2.435207   3.411197   0.000000
    41  C    5.105579   8.150359   4.871303   5.830174   2.436121
    42  C    4.271726   7.556764   3.750391   4.622372   1.423900
    43  H    4.894057   8.278049   4.089683   4.779692   2.160329
    44  C    2.435207   5.834504   1.386512   2.141228   1.407597
    45  H    3.411197   6.742844   2.141228   2.463229   2.149601
    46  H    6.161297   9.232016   5.834504   6.742844   3.415850
                   41         42         43         44         45
    41  C    0.000000
    42  C    1.368736   0.000000
    43  H    2.127514   1.081646   0.000000
    44  C    3.732124   2.483765   2.708734   0.000000
    45  H    4.071744   2.708866   2.483262   1.081463   0.000000
    46  H    1.081657   2.127751   2.452518   4.608811   4.767114
                   46
    46  H    0.000000
 Stoichiometry    C32H14
 Framework group  D2H[C2"(HCC.CCH),SG(C28H12)]
 Deg. of freedom    23
 Full point group                 D2H     NOp   8
 Largest Abelian subgroup         D2H     NOp   8
 Largest concise Abelian subgroup D2      NOp   4
                         Standard orientation:                         
 ---------------------------------------------------------------------
 Center     Atomic      Atomic             Coordinates (Angstroms)
 Number     Number       Type             X           Y           Z
 ---------------------------------------------------------------------
      1          6           0        0.000000    2.451090    0.713610
      2          6           0        0.000000    1.231452    1.418023
      3          6           0        0.000000    0.000000    0.708545
      4          6           0        0.000000    0.000000   -0.708545
      5          6           0        0.000000    1.231452   -1.418023
      6          6           0        0.000000    2.451090   -0.713610
      7          6           0       -0.000000   -1.231452    1.418023
      8          6           0       -0.000000   -1.231452   -1.418023
      9          6           0       -0.000000   -2.451090   -0.713610
     10          6           0       -0.000000   -2.451090    0.713610
     11          6           0        0.000000   -3.691992   -1.424042
     12          6           0        0.000000   -3.658867   -2.847556
     13          6           0        0.000000   -2.474912   -3.534351
     14          6           0        0.000000   -1.225152   -2.856571
     15          6           0        0.000000    0.000000   -3.535168
     16          6           0        0.000000    1.225152   -2.856571
     17          1           0        0.000000    0.000000   -4.617405
     18          1           0        0.000000   -4.597217   -3.385569
     19          1           0        0.000000   -2.475693   -4.616008
     20          6           0        0.000000    1.225152    2.856571
     21          6           0       -0.000000    0.000000    3.535168
     22          6           0       -0.000000   -1.225152    2.856571
     23          1           0       -0.000000    0.000000    4.617405
     24          6           0       -0.000000   -2.474912    3.534351
     25          6           0       -0.000000   -3.658867    2.847556
     26          6           0       -0.000000   -3.691992    1.424042
     27          1           0       -0.000000   -2.475693    4.616008
     28          1           0       -0.000000   -4.597217    3.385569
     29          6           0        0.000000   -4.895022   -0.693256
     30          1           0        0.000000   -5.832963   -1.231614
     31          6           0       -0.000000   -4.895022    0.693256
     32          1           0       -0.000000   -5.832963    1.231614
     33          6           0        0.000000    2.474912   -3.534351
     34          6           0        0.000000    3.658867   -2.847556
     35          1           0        0.000000    4.597217   -3.385569
     36          6           0        0.000000    3.691992   -1.424042
     37          1           0        0.000000    2.475693   -4.616008
     38          6           0        0.000000    4.895022   -0.693256
     39          1           0        0.000000    5.832963   -1.231614
     40          6           0        0.000000    3.691992    1.424042
     41          6           0        0.000000    2.474912    3.534351
     42          6           0        0.000000    3.658867    2.847556
     43          1           0        0.000000    4.597217    3.385569
     44          6           0        0.000000    4.895022    0.693256
     45          1           0        0.000000    5.832963    1.231614
     46          1           0        0.000000    2.475693    4.616008
 ---------------------------------------------------------------------
 Rotational constants (GHZ):           0.2389454           0.1477155           0.0912840
 Standard basis: 6-311++G(2d,2p) (5D, 7F)
 There are   207 symmetry adapted cartesian basis functions of AG  symmetry.
 There are    66 symmetry adapted cartesian basis functions of B1G symmetry.
 There are    76 symmetry adapted cartesian basis functions of B2G symmetry.
 There are   185 symmetry adapted cartesian basis functions of B3G symmetry.
 There are    66 symmetry adapted cartesian basis functions of AU  symmetry.
 There are   207 symmetry adapted cartesian basis functions of B1U symmetry.
 There are   185 symmetry adapted cartesian basis functions of B2U symmetry.
 There are    76 symmetry adapted cartesian basis functions of B3U symmetry.
 There are   189 symmetry adapted basis functions of AG  symmetry.
 There are    66 symmetry adapted basis functions of B1G symmetry.
 There are    76 symmetry adapted basis functions of B2G symmetry.
 There are   171 symmetry adapted basis functions of B3G symmetry.
 There are    66 symmetry adapted basis functions of AU  symmetry.
 There are   189 symmetry adapted basis functions of B1U symmetry.
 There are   171 symmetry adapted basis functions of B2U symmetry.
 There are    76 symmetry adapted basis functions of B3U symmetry.
  1004 basis functions,  1512 primitive gaussians,  1068 cartesian basis functions
   103 alpha electrons      103 beta electrons
       nuclear repulsion energy      2860.1314505121 Hartrees.
 NAtoms=   46 NActive=   46 NUniq=   13 SFac= 4.00D+00 NAtFMM=   60 NAOKFM=F Big=F
 Integral buffers will be    131072 words long.
 Regular integral format.
 Two-electron integral symmetry is turned on.
 Nuclear repulsion after empirical dispersion term =     2859.9869357629 Hartrees.
 One-electron integrals computed using PRISM.
 NBasis=  1004 RedAO= T EigKep=  1.05D-06  NBF=   189    66    76   171    66   189   171    76
 NBsUse=   973 1.00D-06 EigRej=  8.77D-07 NBFU=   183    66    76   162    66   179   165    76
 ExpMin= 3.60D-02 ExpMax= 4.56D+03 ExpMxC= 6.82D+02 IAcc=3 IRadAn=         5 AccDes= 0.00D+00
 Harris functional with IExCor=  402 and IRadAn=       5 diagonalized for initial guess.
 HarFok:  IExCor=  402 AccDes= 0.00D+00 IRadAn=         5 IDoV= 1 UseB2=F ITyADJ=14
 ICtDFT=  3500011 ScaDFX=  1.000000  1.000000  1.000000  1.000000
 FoFCou: FMM=F IPFlag=           0 FMFlag=      100000 FMFlg1=           0
         NFxFlg=           0 DoJE=T BraDBF=F KetDBF=T FulRan=T
         wScrn=  0.000000 ICntrl=       500 IOpCl=  0 I1Cent=   200000004 NGrid=           0
         NMat0=    1 NMatS0=      1 NMatT0=    0 NMatD0=    1 NMtDS0=    0 NMtDT0=    0
 Petite list used in FoFCou.
 Initial guess orbital symmetries:
       Occupied  (B1U) (AG) (B3G) (B2U) (B1U) (B3G) (AG) (B2U)
                 (AG) (B2U) (B3G) (B1U) (B1U) (AG) (B3G) (B2U)
                 (B1U) (AG) (B3G) (B1U) (AG) (B2U) (AG) (B1U) (B2U)
                 (AG) (B3G) (B1U) (B2U) (B3G) (AG) (B1U) (AG) (B2U)
                 (B1U) (AG) (B3G) (AG) (B2U) (B1U) (B2U) (AG) (B1U)
                 (B3G) (AG) (B3G) (B2U) (B1U) (AG) (B3G) (B2U)
                 (B1U) (AG) (B2U) (B1U) (B3G) (AG) (B1U) (AG) (B2U)
                 (B3G) (B2U) (AG) (B1U) (B3G) (B2U) (B1U) (AG)
                 (B2U) (B3G) (AG) (B1U) (B2U) (AG) (B3G) (B2U)
                 (AG) (B3G) (B3U) (B1U) (AG) (B2U) (B1G) (B3G)
                 (B2G) (B1U) (B1U) (B2U) (B3U) (AU) (B3G) (AG)
                 (B3U) (B1G) (B2G) (B1G) (B2G) (AU) (B3U) (B3U)
                 (AU) (B1G) (B2G)
       Virtual   (B3U) (AU) (B1G) (B2G) (B2G) (B1G) (B3U) (AU)
                 (B3U) (AU) (B2G) (AG) (B2U) (B1U) (B1G) (B3G)
                 (B2G) (AG) (AG) (B2U) (B1U) (B2U) (AG) (B3G) (B3U)
                 (B1U) (B1U) (B3U) (B2U) (B1G) (B2G) (AG) (AG)
                 (AU) (B3G) (B2U) (B3U) (B3G) (B1U) (AG) (AU) (AG)
                 (B1U) (B2U) (B3U) (AG) (B2U) (B2G) (B3G) (B1U)
                 (B1G) (AG) (B2U) (B1G) (B3G) (B1U) (B1U) (AG)
                 (B2G) (B2U) (B2U) (B1U) (B3G) (AU) (AG) (B3G)
                 (B1U) (AG) (B2U) (B3U) (B1U) (B2G) (B2U) (AG)
                 (B3G) (B3U) (AU) (AG) (B1U) (B3G) (B1U) (B3G)
                 (B1G) (B2U) (B2G) (AG) (AG) (B2U) (B1U) (B3U)
                 (AG) (B3G) (B2U) (B2U) (B2G) (B1U) (B3G) (B1G)
                 (AU) (AG) (B3U) (B1U) (B2U) (B3G) (AG) (B1G) (AG)
                 (B2U) (B3G) (B2G) (B2U) (B1U) (AU) (B1U) (AG)
                 (B3G) (B2U) (B2G) (B1U) (AG) (B2U) (AG) (B1U)
                 (AG) (B3G) (B3U) (B2U) (B3G) (B1U) (B2U) (B3G)
                 (AG) (AU) (B2G) (B1U) (B1U) (B3U) (B3G) (B1G)
                 (AG) (B1U) (AG) (B2U) (B3G) (B1U) (B2U) (B1U)
                 (AG) (B3G) (B2U) (AG) (B3G) (B3G) (B3U) (B3G)
                 (B2U) (B1U) (B2G) (AG) (B1G) (B3G) (B1U) (AU)
                 (AG) (B2U) (B1U) (B1U) (B2U) (AG) (B3G) (B1U)
                 (B2U) (AG) (B3G) (B2U) (AG) (B3U) (B1U) (B3U)
                 (B1G) (B2G) (AU) (AG) (B3G) (B1U) (B1G) (B3U)
                 (B2G) (B3U) (AU) (AG) (B1G) (B2U) (B2U) (AG) (B1G)
                 (B2U) (B3U) (B1U) (B2U) (B2G) (B3G) (B3G) (AG)
                 (B1U) (B3G) (B2G) (AG) (B3G) (B1U) (B1U) (B2U)
                 (AG) (B3U) (B3G) (AG) (AU) (B2U) (B1G) (B1U) (AG)
                 (B2U) (AG) (B3G) (B1U) (B2U) (AU) (B2G) (B3U)
                 (B1G) (B3U) (AU) (B2G) (B1G) (B2G) (B3U) (B1G)
                 (AG) (B2G) (AU) (AG) (B3G) (B2U) (B1U) (B1G) (B1U)
                 (B3G) (B3U) (B1U) (B2U) (AG) (B3U) (B2U) (B1G)
                 (AU) (B1U) (AG) (B3U) (B3G) (B2G) (B3U) (AU) (AU)
                 (B1U) (B2G) (B3U) (AG) (B1G) (B3G) (B2G) (B1U)
                 (B2U) (AG) (B3G) (AG) (AU) (B1G) (B2U) (B1U) (B2G)
                 (AU) (AG) (B1U) (B3G) (B2U) (B2G) (B1G) (B2U)
                 (AG) (B1U) (B2U) (B3G) (B1U) (AG) (B3G) (B2U)
                 (B3U) (AG) (AU) (B1U) (B3G) (AG) (B3G) (B2U) (B1U)
                 (B2U) (AG) (B3G) (B1U) (B2U) (AG) (B3G) (B3G)
                 (B1U) (B1U) (B1G) (B3U) (B2G) (B3U) (B2U) (AG)
                 (AU) (B1G) (B3U) (B2G) (AG) (B3G) (B1U) (B2U)
                 (B1G) (B1U) (B3U) (B3G) (B2U) (AG) (B2G) (AU)
                 (AG) (B2U) (AU) (B2G) (B1U) (B2G) (B1G) (B3U)
                 (B1G) (B3G) (AG) (AU) (B3G) (B2U) (B3U) (AG) (B1U)
                 (AU) (B2U) (AG) (B2G) (B3G) (B1G) (B2U) (AG) (B1U)
                 (B2U) (AG) (B3U) (B2G) (AU) (B1U) (B3G) (B3U)
                 (B2G) (AG) (B2U) (B3G) (B2U) (B1U) (AG) (B3G)
                 (B2U) (B1U) (B3G) (B2U) (AG) (B1G) (B1U) (B2U)
                 (AU) (B1U) (B2G) (AG) (B3G) (B1G) (B3U) (AG) (B2G)
                 (AU) (B1G) (B2U) (AG) (B1U) (B2U) (B1U) (B3G)
                 (B3G) (B2U) (AG) (B1U) (AG) (B3G) (B3U) (B2U)
                 (AG) (B2G) (B1U) (B1U) (AU) (AG) (B3G) (B3U) (B3G)
                 (B1U) (AU) (B1G) (B1U) (AG) (B2U) (B3G) (B2G)
                 (B1U) (B2U) (B3G) (B2U) (AG) (B2U) (B3G) (B2G)
                 (AU) (AG) (B1U) (B2U) (B1U) (B3U) (B3G) (AG) (B3G)
                 (AG) (B2U) (B1U) (B3G) (B1U) (B2U) (B1G) (AG)
                 (B1U) (B3G) (B2G) (AG) (B2U) (B3G) (B1U) (B2U)
                 (AG) (B1U) (AU) (B3G) (B3U) (AG) (B1U) (B2U) (B3G)
                 (B1U) (AG) (B3G) (B2U) (B1U) (B3G) (AG) (B1U)
                 (B2U) (B3G) (B1G) (B1U) (AU) (B2G) (AG) (B2U)
                 (B3G) (AG) (B1U) (B2U) (B3G) (B3G) (AG) (B1U)
                 (B1U) (B2U) (B3G) (B1U) (AG) (B3G) (B1U) (B2G)
                 (AU) (B2U) (B3G) (AG) (B1U) (B2U) (B1U) (AG) (B3G)
                 (B3G) (B2U) (B2U) (B1U) (AG) (B3G) (B2U) (AG)
                 (B1U) (B3U) (B1G) (B3G) (B2G) (AU) (B3U) (AG)
                 (B1U) (B1G) (B3U) (B2G) (B3U) (B1G) (AU) (B2G)
                 (B1U) (B1G) (B3U) (AG) (B2G) (B2U) (B1U) (B3U)
                 (B1G) (B3G) (AU) (AG) (B2U) (B3G) (AU) (B2G) (B3U)
                 (B1G) (B2U) (AG) (B1G) (AG) (B3U) (B3G) (AG) (B1U)
                 (B2U) (AG) (B2U) (B1U) (B3G) (B2U) (AG) (AU) (B1U)
                 (B2G) (B3U) (B1G) (B3G) (AU) (B3U) (B2G) (B1G)
                 (B1U) (AU) (B2U) (B2G) (B3U) (B2U) (AG) (B2G)
                 (AG) (AU) (B2G) (B3G) (B2G) (B2U) (AG) (B3U) (AU)
                 (B3G) (B1U) (B1G) (B1U) (B1G) (B3U) (AG) (AG)
                 (B2U) (B3G) (B2U) (B1G) (B1U) (B3U) (AU) (AG)
                 (B2G) (B3G) (B2U) (B1U) (B3G) (B3U) (B2U) (AG)
                 (B1G) (B1U) (AU) (B3G) (B1U) (AG) (B1G) (B3G)
                 (B2G) (B3U) (AG) (B1G) (B2U) (B2U) (AU) (AG) (B2G)
                 (B1U) (B3U) (AU) (B2U) (B1U) (AG) (B3G) (B1G)
                 (AU) (B1U) (B2U) (B2G) (B3U) (B3G) (AG) (B2G)
                 (AG) (B3U) (B1U) (B1U) (B1G) (B3G) (B2U) (B3U)
                 (B2G) (AU) (AG) (B1G) (AU) (B1U) (AG) (B3G) (B3U)
                 (B1G) (B2U) (B3U) (B2G) (B2U) (B2G) (AU) (B1G)
                 (AG) (B1U) (B3G) (B2G) (B2U) (B3U) (B3G) (B1G)
                 (AU) (AG) (B1U) (AU) (AG) (B2G) (B2U) (B3G) (AU)
                 (B2U) (B2G) (B1U) (B3U) (AG) (B3G) (B1U) (B2G)
                 (B3G) (B1G) (B2U) (AU) (B2U) (AG) (B3U) (B1U)
                 (AG) (B1U) (B3G) (B3G) (B1G) (B1U) (AG) (B2G)
                 (AG) (AU) (B2U) (B1U) (B3G) (AG) (B3G) (B2U) (B1G)
                 (B3U) (AU) (B2G) (B3U) (B1G) (B2U) (B1U) (AG)
                 (B3U) (B2G) (AU) (B2G) (B2U) (B1G) (AU) (B3U)
                 (AG) (B2G) (B1U) (B3G) (B3G) (B2U) (B1U) (AU)
                 (B2G) (AG) (B1U) (B2U) (AG) (B3G) (B2U) (B1U)
                 (B2U) (B3G) (B1U) (AG) (B1U) (B3G) (B1U) (AG)
                 (B2U) (B3G) (B3G) (B1U) (B2U) (AG) (AG) (B3G)
                 (B2U) (B1U) (B3G) (B1U) (AG) (B3G) (B2U) (B2U)
                 (B1U) (AG) (B1U) (B3G) (B2U) (AG) (B3G) (B1U)
                 (B3G) (AG) (AG) (B2U) (B1U) (B3G) (B1U) (B2U)
                 (B3G) (B3G) (B2U) (B1U) (AG) (B2U) (B1U) (AG)
                 (B3G) (B1U) (B3G) (AG) (B2U) (B1U) (AG) (B2U)
                 (AG) (B1U) (B3G) (AG) (B1U) (B3G) (B2U) (B3G)
                 (B1U) (AG) (B1U) (B2U) (B3G) (B1U) (AG) (B3G)
                 (B2U) (B1U) (B2U) (B3G) (B3G) (B1U) (AG) (B2U)
                 (B1U) (B3G) (B2U) (AG) (AG) (B1U) (B2U) (B1U)
                 (AG) (B3G) (B1U) (AG) (B3G) (B2U) (B2U) (B1U)
                 (B3G) (AG) (B3G) (B1U) (AG) (B2U) (AG) (B1U) (B3G)
                 (B2U) (B1U) (B1U) (AG) (B3G)
 The electronic state of the initial guess is 1-AG.
 Requested convergence on RMS density matrix=1.00D-08 within 128 cycles.
 Requested convergence on MAX density matrix=1.00D-06.
 Requested convergence on             energy=1.00D-06.
 No special actions if energy rises.
 SCF Done:  E(RB3LYP) =  -1228.45992078     A.U. after   13 cycles
            NFock= 13  Conv=0.33D-08     -V/T= 2.0045
 DoSCS=F DFT=T ScalE2(SS,OS)=  1.000000  1.000000
 ExpMin= 3.60D-02 ExpMax= 4.56D+03 ExpMxC= 6.82D+02 IAcc=3 IRadAn=         5 AccDes= 0.00D+00
 HarFok:  IExCor=  205 AccDes= 0.00D+00 IRadAn=         5 IDoV=-2 UseB2=F ITyADJ=14
 ICtDFT= 12500011 ScaDFX=  1.000000  1.000000  1.000000  1.000000
 GSVD:  LWork=       -1280 too small for GESVD, short by        5600 words or        5600 for optimal perf.
 Range of M.O.s used for correlation:    33   973
 NBasis=  1004 NAE=   103 NBE=   103 NFC=    32 NFV=     0
 NROrb=    941 NOA=    71 NOB=    71 NVA=   870 NVB=   870

 **** Warning!!: The largest alpha MO coefficient is  0.13336538D+03

 Orbital symmetries:
       Occupied  (AG) (B1U) (B3G) (B2U) (AG) (B1U) (B2U) (AG) (B3G)
                 (B1U) (B2U) (AG) (B3G) (B1U) (B2U) (AG) (B3G)
                 (B1U) (B1U) (B3G) (AG) (B2U) (AG) (B2U) (B1U)
                 (AG) (B3G) (B1U) (B1U) (AG) (B3G) (B2U) (AG) (B2U)
                 (B1U) (AG) (B3G) (AG) (B2U) (B1U) (B2U) (AG) (B1U)
                 (B3G) (AG) (B3G) (B2U) (B1U) (AG) (B1U) (B2U)
                 (B3G) (AG) (B2U) (B1U) (B3G) (AG) (B1U) (B3G)
                 (AG) (B2U) (B2U) (B1U) (AG) (B3G) (B2U) (B1U)
                 (AG) (AG) (B2U) (B3U) (B1U) (B3G) (B2U) (B3G)
                 (AG) (B2U) (B1G) (AG) (B2G) (B3G) (B1U) (AG) (B3G)
                 (B1U) (B3U) (AU) (B2U) (B1U) (B2U) (B3U) (B3G)
                 (B1G) (AG) (B2G) (B1G) (B2G) (AU) (B3U) (B3U)
                 (AU) (B1G) (B2G)
       Virtual   (B3U) (AU) (B1G) (B2G) (B3U) (B1G) (B2G) (AG)
                 (B2U) (B1U) (B3G) (AG) (B2U) (B1U) (AU) (AG) (B3U)
                 (AG) (B3G) (B2G) (B2U) (AU) (B1U) (B1G) (B3U)
                 (B2U) (B1U) (B2G) (B3U) (AG) (B3G) (AG) (B3G)
                 (AU) (B3U) (B1G) (AG) (B2U) (B1U) (B2G) (AG) (B2U)
                 (B3G) (B1U) (B1G) (AG) (B1U) (AU) (B2U) (B1U)
                 (B2U) (B2G) (AG) (B3G) (B3U) (B1G) (B2U) (B2G)
                 (B2U) (B3G) (B1U) (AG) (B3U) (AG) (AU) (B1U) (B3G)
                 (B2G) (B1G) (AG) (B3G) (B3U) (B1U) (AG) (B2U)
                 (B1U) (B3U) (B2G) (B3G) (AU) (B1G) (B3U) (AG)
                 (B2U) (B1U) (AG) (B2U) (AU) (B3G) (AG) (B2U) (B1G)
                 (AG) (B1U) (B2G) (B1U) (B2U) (AU) (B1U) (B3G)
                 (B2U) (B2G) (B1U) (AG) (B2U) (B1U) (AG) (B3G)
                 (AG) (B3G) (B2U) (B3U) (B2U) (B2G) (B3G) (AU)
                 (AG) (B2U) (AG) (B1U) (AG) (B3G) (B1U) (B3G) (B2G)
                 (B1U) (AG) (B3U) (B2U) (B1U) (B1G) (B3G) (B3G)
                 (B2U) (B1U) (AG) (B1U) (AG) (B2U) (B3G) (AG) (B2U)
                 (B1U) (B3G) (B2U) (AG) (B3G) (B1U) (B2G) (AU)
                 (B2U) (AG) (B1U) (B3G) (B2U) (AG) (B3G) (B1U)
                 (B2U) (B1U) (AG) (B3U) (AG) (B3G) (B1G) (B2U)
                 (B1U) (B1U) (B3G) (AG) (B3G) (B2U) (B3U) (B3G)
                 (B1G) (B2G) (B2U) (AG) (AU) (B3U) (B1U) (AG) (B1U)
                 (AG) (B1G) (B3U) (B2U) (B3U) (B1G) (B2G) (AU)
                 (B3G) (AG) (B1U) (B2U) (B1G) (B3G) (B2G) (B3U)
                 (B2U) (B1U) (B2G) (B1U) (B2U) (AG) (AG) (B3G)
                 (B2U) (AG) (B3G) (B1U) (AG) (B3U) (B3G) (AU) (B1G)
                 (B1U) (B2U) (B2U) (AG) (AU) (B3G) (B2G) (AG) (B1U)
                 (B2U) (B3U) (AU) (B3G) (B1U) (B3U) (B2G) (B1G)
                 (B1G) (B2G) (B3U) (B1G) (B2G) (AG) (B2U) (AU)
                 (B3U) (AG) (B1U) (B2U) (AG) (B1G) (B1U) (B3G)
                 (B3U) (AU) (AG) (B1G) (B3U) (B2G) (B2U) (AU) (B3G)
                 (B1U) (B1U) (AU) (B2G) (B3U) (B3G) (B1U) (B3U)
                 (B1G) (AG) (B2G) (B3G) (B2U) (B3G) (B1U) (AG)
                 (AU) (B1U) (B2U) (B2G) (B2U) (AG) (B1G) (AU) (AG)
                 (B1U) (B1G) (AG) (B2G) (B3G) (B1U) (B3G) (B2U)
                 (AG) (B2U) (B1U) (B3G) (B2U) (B3G) (AG) (B1U)
                 (B2U) (B3U) (B3G) (AG) (B1U) (AU) (B3G) (AG) (B2U)
                 (B2U) (B1U) (B3G) (AG) (B1U) (B3G) (B3U) (B2G)
                 (B1U) (B1G) (B3U) (B2U) (AU) (B1G) (B3U) (B2G)
                 (AG) (B3G) (AG) (B1U) (B2U) (B1G) (B3U) (B1U)
                 (B2G) (B3G) (B2U) (AG) (AU) (B2U) (AG) (AU) (B2G)
                 (B1G) (B3U) (B1U) (B2G) (B3G) (AG) (AU) (B1G)
                 (B2U) (AG) (B3G) (B3U) (AU) (B1U) (B2U) (B3G)
                 (AG) (AG) (B1U) (B2U) (B2G) (AG) (B1G) (B1U) (B2U)
                 (B2G) (B3U) (AU) (B2G) (B2U) (B3G) (B3G) (AG)
                 (B3U) (B2U) (B3G) (B1U) (B1U) (B3G) (B1U) (AG)
                 (B2U) (B2U) (B1U) (AG) (B1G) (B3G) (B2U) (AG)
                 (AU) (B2G) (B3U) (AG) (B2G) (B1G) (B1U) (AG) (B2U)
                 (B1G) (AU) (B2U) (B3G) (B3G) (B1U) (AG) (B2U)
                 (AG) (B3G) (B1U) (B2U) (AG) (B3U) (B2G) (B1U)
                 (B1U) (B3G) (AU) (AG) (B3G) (B1U) (AG) (B3U) (B1U)
                 (B2U) (B1G) (AU) (B3G) (B1U) (B2U) (B3G) (B2G)
                 (B2U) (AG) (B2U) (AU) (B1U) (B2G) (B3G) (B3G)
                 (AG) (AG) (B3U) (B2U) (B1U) (B3G) (B2U) (AG) (B3G)
                 (B1U) (B1G) (B2G) (B1U) (B2U) (AG) (B3G) (B1U)
                 (AG) (B1U) (B3G) (B2U) (AU) (B3G) (B1U) (B2U)
                 (AG) (B3U) (B1U) (B3G) (AG) (B2U) (B3G) (B1U)
                 (AG) (B1U) (B2U) (B3G) (AG) (B1U) (B3G) (B2U)
                 (B1G) (B1U) (AU) (B2G) (AG) (B3G) (B2U) (AG) (B1U)
                 (B3G) (B1U) (B2U) (AG) (B1U) (B3G) (B2U) (B1U)
                 (B3G) (B3G) (B2G) (AG) (AU) (B1U) (B2U) (B3G)
                 (B1U) (AG) (B1U) (B3G) (B2U) (AG) (B2U) (B3G)
                 (B1U) (B2U) (AG) (B3G) (B2U) (AG) (B1U) (B3G)
                 (B3U) (B1G) (AG) (B1U) (B2G) (AU) (B3U) (B1G)
                 (B3U) (B2G) (B3U) (B1G) (B1U) (AU) (B2G) (AG)
                 (B2U) (B1G) (B3U) (B1U) (B3G) (AG) (B2G) (B2U)
                 (B3G) (B3U) (B1G) (AU) (AU) (B2G) (B3U) (B1G)
                 (B2U) (AG) (B1G) (B3U) (AG) (B1U) (AG) (B2U) (AG)
                 (B3G) (B1U) (B2U) (B3G) (B2U) (B3U) (B1G) (B1U)
                 (AG) (AU) (B3G) (B2G) (B1U) (AU) (B2U) (B3U) (B2G)
                 (B1G) (AU) (AG) (B2G) (B3U) (AG) (B2G) (AU) (B2G)
                 (B2U) (B3G) (B2G) (B3U) (B2U) (AG) (B3G) (B1U)
                 (AU) (B1G) (B1U) (B1G) (B3U) (AG) (B3G) (B1G)
                 (B1U) (B2U) (AG) (B3U) (B2U) (AU) (B2G) (AG) (B3G)
                 (B2U) (B1U) (B3U) (B3G) (B1G) (AU) (AG) (B2U)
                 (B1U) (B3G) (B1U) (B2G) (B1G) (B1G) (AG) (B3U)
                 (B3G) (B2U) (AU) (AG) (B3U) (B2G) (B2U) (AU) (B1U)
                 (AG) (B1U) (B2U) (B1G) (AU) (B2G) (B3U) (AG) (B3G)
                 (B2G) (B1U) (AG) (B2U) (B3G) (B3U) (AG) (B1U)
                 (B1G) (B1U) (B3G) (B2G) (B3U) (AU) (B1G) (AU)
                 (AG) (B2U) (B3U) (B1G) (B3U) (B1U) (B3G) (AG)
                 (B2U) (B2G) (B2G) (AU) (B2U) (B1G) (AG) (B2G)
                 (B3U) (B1U) (B1G) (B3G) (AU) (AU) (B2U) (AG) (B3G)
                 (B2G) (B1U) (B2G) (AG) (B2U) (AU) (B3G) (B2U)
                 (B1U) (B3U) (AG) (B2G) (B3G) (B1U) (B3G) (B1G)
                 (B2U) (AU) (B2U) (AG) (B3U) (AG) (B1U) (B1U) (B3G)
                 (B1G) (B3G) (B2G) (AG) (B1U) (AU) (B2U) (AG) (B1G)
                 (B3U) (B3G) (AU) (B1U) (B2G) (AG) (B3U) (B1G)
                 (B2U) (B3G) (B3U) (B2G) (AU) (B2G) (B1G) (B2U)
                 (B3U) (AU) (B1U) (AG) (B2G) (B2U) (AG) (B1U) (AU)
                 (B3G) (B2U) (B2G) (B3G) (AG) (B1U) (B1U) (B2U)
                 (B3G) (AG) (B2U) (B1U) (B2U) (B3G) (B1U) (AG)
                 (B1U) (B3G) (B1U) (AG) (B3G) (B2U) (B3G) (B1U)
                 (B2U) (AG) (AG) (B3G) (B2U) (B3G) (B1U) (B1U)
                 (AG) (B3G) (B2U) (B2U) (B1U) (AG) (B2U) (B3G)
                 (B1U) (B3G) (AG) (B1U) (B3G) (AG) (B1U) (B2U)
                 (AG) (B3G) (B1U) (B3G) (B2U) (B2U) (B3G) (B1U)
                 (B2U) (AG) (B1U) (AG) (B3G) (B1U) (B3G) (AG) (B2U)
                 (B1U) (AG) (B2U) (AG) (B1U) (AG) (B3G) (B1U) (B3G)
                 (B2U) (B1U) (B3G) (AG) (B1U) (B2U) (B3G) (B1U)
                 (AG) (B2U) (B3G) (B1U) (B2U) (B3G) (B3G) (B1U)
                 (AG) (B2U) (B1U) (B3G) (B2U) (AG) (B1U) (AG) (B1U)
                 (B2U) (B3G) (AG) (B1U) (AG) (B3G) (B2U) (B2U)
                 (B1U) (B3G) (AG) (B3G) (B1U) (AG) (B2U) (AG) (B1U)
                 (B2U) (B3G) (B1U) (B1U) (AG) (B3G)
    80 initial guesses have been made.
 Convergence on wavefunction:    0.000001000000000
 Iteration     1 Dimension    80 NMult     0 NNew     80
 CISAX will form    32 AO SS matrices at one time.
 New state      1 was old state      3
 New state      2 was old state      1
 New state      3 was old state      4
 New state      4 was old state      7
 New state      5 was old state      6
 New state      6 was old state      2
 New state      7 was old state      9
 New state      8 was old state     10
 New state      9 was old state     11
 New state     10 was old state      5
 Iteration     2 Dimension   100 NMult    80 NNew     20
 New state      1 was old state      2
 New state      2 was old state      1
 New state      4 was old state      5
 New state      5 was old state      4
 New state      7 was old state     10
 New state      8 was old state      7
 New state      9 was old state     11
 New state     10 was old state      8
 Iteration     3 Dimension   120 NMult   100 NNew     20
 Iteration     4 Dimension   140 NMult   120 NNew     20
 Iteration     5 Dimension   160 NMult   140 NNew     20
 Iteration     6 Dimension   180 NMult   160 NNew     20
 Iteration     7 Dimension   200 NMult   180 NNew     20
 Iteration     8 Dimension   220 NMult   200 NNew     20
 Iteration     9 Dimension   238 NMult   220 NNew     18
 Iteration    10 Dimension   250 NMult   238 NNew     12
 ***********************************************************************
 Excited states from <AA,BB:AA,BB> singles matrix:
 ***********************************************************************
 
 Ground to excited state transition densities written to RWF  633
 Ground to excited state transition electric dipole moments (Au):
       state          X           Y           Z        Dip. S.      Osc.
         1        -0.0000     -0.0000      1.5404      2.3727      0.1520
         2        -0.0000     -0.0190     -0.0000      0.0004      0.0000
         3         0.0000      0.0000     -0.0000      0.0000      0.0000
         4        -0.0000      0.0000      0.0000      0.0000      0.0000
         5        -0.0000     -0.0000     -0.0000      0.0000      0.0000
         6         0.0000      3.4664      0.0000     12.0156      1.0608
         7        -0.0000     -0.0000      1.8515      3.4282      0.3181
         8        -0.0000      0.0000      0.0000      0.0000      0.0000
         9        -0.0000     -0.0000      0.0000      0.0000      0.0000
        10        -0.0000      0.0000     -0.0513      0.0026      0.0003
 Ground to excited state transition velocity dipole moments (Au):
       state          X           Y           Z        Dip. S.      Osc.
         1         0.0000     -0.0000     -0.1492      0.0223      0.1544
         2         0.0000      0.0015     -0.0000      0.0000      0.0000
         3        -0.0000     -0.0000     -0.0000      0.0000      0.0000
         4         0.0000     -0.0000     -0.0000      0.0000      0.0000
         5         0.0000      0.0000     -0.0000      0.0000      0.0000
         6        -0.0000     -0.4591      0.0000      0.2108      1.0611
         7         0.0000      0.0000     -0.2592      0.0672      0.3218
         8         0.0000     -0.0000      0.0000      0.0000      0.0000
         9         0.0000      0.0000     -0.0000      0.0000      0.0000
        10         0.0000     -0.0000      0.0076      0.0001      0.0003
 Ground to excited state transition magnetic dipole moments (Au):
       state          X           Y           Z
         1        -0.0000      0.0000      0.0000
         2         0.0000     -0.0000     -0.0000
         3        -2.7729      0.0000     -0.0000
         4         3.1950     -0.0000      0.0000
         5         0.0000      0.0000      0.0000
         6        -0.0000      0.0000      0.0000
         7         0.0000      0.0000      0.0000
         8         0.0000      0.0000      0.0000
         9        -0.0000      0.0000      0.0000
        10        -0.0000     -0.0000     -0.0000
 Ground to excited state transition velocity quadrupole moments (Au):
[...]
    42  C    0.000000  -0.423027  -0.112388   0.051148  -0.005464   0.014646
    43  H    0.000000   0.031076  -0.003370  -0.000529   0.000088  -0.000116
    44  C    0.000002   0.074803   0.043146   0.005521  -0.000544  -0.001940
    45  H   -0.000001   0.001059  -0.000420  -0.000139  -0.000051  -0.000010
    46  H   -0.000000  -0.076951   0.012966  -0.001162   0.013762   0.000683
              25         26         27         28         29         30
     1  C    0.006138   0.018281  -0.000098  -0.000042   0.002141   0.000048
     2  C   -0.059060  -0.021292  -0.005504   0.000474  -0.003783  -0.000244
     3  C   -0.082804   0.049704   0.001622  -0.001219   0.026601   0.001459
     4  C   -0.033267  -0.038142  -0.001532   0.000242   0.001800  -0.001369
     5  C   -0.000225   0.014579   0.000337  -0.000022   0.001061   0.000881
     6  C   -0.006818  -0.001230  -0.000146  -0.000016   0.002614  -0.000093
     7  C    0.004588  -0.003937  -0.001367   0.010697  -0.124202  -0.004118
     8  C    0.029419   0.048844   0.001231  -0.000987  -0.082318   0.006000
     9  C   -0.175704  -0.048993  -0.004330   0.005753  -0.029537   0.001345
    10  C   -0.112897   0.372322   0.005919   0.003680   0.075513   0.010498
    11  C    0.093543  -0.015579   0.001743  -0.004552   0.319061  -0.053522
    12  C    0.074962   0.093543   0.000144   0.000005  -0.197942   0.005407
    13  C    0.012717   0.010801  -0.000012   0.000010  -0.087674   0.012037
    14  C   -0.015731  -0.052432  -0.000301   0.000039   0.074803   0.001059
    15  C    0.000470  -0.005895   0.000002  -0.000043   0.043146  -0.000420
    16  C    0.003872   0.009682   0.000005   0.000010   0.005521  -0.000139
    17  H   -0.000005   0.000407   0.000004  -0.000004  -0.000544  -0.000051
    18  H    0.000005  -0.004552   0.000001  -0.000009   0.000786   0.014508
    19  H    0.000144   0.001743   0.000001   0.000001  -0.001452  -0.000514
    20  C    0.051148   0.027522  -0.001162  -0.000529  -0.001436  -0.000126
    21  C   -0.112388   0.062761   0.012966  -0.003370   0.019228   0.000186
    22  C   -0.423027  -0.003952  -0.076951   0.031076   0.042907   0.001139
    23  H   -0.005464   0.001978   0.013762   0.000088  -0.000162   0.000010
    24  C    0.948310  -0.287393   0.433760  -0.013726  -0.029011  -0.000493
    25  C    5.655429   0.233763   0.002027   0.378164  -0.108328  -0.004766
    26  C    0.233763   5.286676   0.006252  -0.032816  -0.315789   0.004539
    27  H    0.002027   0.006252   0.511081  -0.005070   0.000136  -0.000051
    28  H    0.378164  -0.032816  -0.005070   0.512742   0.004994  -0.000308
    29  C   -0.108328  -0.315789   0.000136   0.004994   5.393604   0.425612
    30  H   -0.004766   0.004539  -0.000051  -0.000308   0.425612   0.518241
    31  C   -0.197942   0.319061  -0.001452   0.000786   0.768482  -0.024277
    32  H    0.005407  -0.053522  -0.000514   0.014508  -0.024277  -0.005831
    33  C    0.000428   0.003547  -0.000030   0.000004  -0.001940  -0.000010
    34  C    0.000405   0.001548   0.000000  -0.000000  -0.001403  -0.000011
    35  H   -0.000000   0.000016   0.000000  -0.000000  -0.000006  -0.000000
    36  C    0.001548   0.002699   0.000007   0.000016  -0.001203   0.000034
    37  H    0.000000   0.000007  -0.000000   0.000000   0.000003   0.000001
    38  C   -0.000664  -0.000656   0.000002  -0.000004  -0.000005   0.000003
    39  H   -0.000006  -0.000016  -0.000001   0.000000   0.000003  -0.000000
    40  C   -0.005100  -0.010552  -0.000388  -0.000013  -0.000656  -0.000016
    41  C    0.014646  -0.007492   0.000683  -0.000116  -0.000475  -0.000021
    42  C    0.007649  -0.005100   0.000808   0.000004  -0.000664  -0.000006
    43  H    0.000004  -0.000013  -0.000033   0.000001  -0.000004   0.000000
    44  C   -0.001403  -0.001203   0.000003  -0.000006   0.000117   0.000003
    45  H   -0.000011   0.000034   0.000001  -0.000000   0.000003   0.000000
    46  H    0.000808  -0.000388   0.000095  -0.000033   0.000002  -0.000001
              31         32         33         34         35         36
     1  C    0.002614  -0.000093  -0.096357  -0.175704   0.005753  -0.048993
     2  C    0.001061   0.000881   0.019060   0.029419  -0.000987   0.048844
     3  C    0.001800  -0.001369  -0.027676  -0.033267   0.000242  -0.038142
     4  C    0.026601   0.001459  -0.049153  -0.082804  -0.001219   0.049704
     5  C   -0.003783  -0.000244   0.035931   0.004588   0.010697  -0.003937
     6  C    0.002141   0.000048   0.082552  -0.112897   0.003680   0.372322
     7  C   -0.082318   0.006000   0.005791  -0.000225  -0.000022   0.014579
     8  C   -0.124202  -0.004118  -0.066877  -0.059060   0.000474  -0.021292
     9  C    0.075513   0.010498  -0.001151   0.006138  -0.000042   0.018281
    10  C   -0.029537   0.001345  -0.011277  -0.006818  -0.000016  -0.001230
    11  C   -0.315789   0.004539  -0.007492  -0.005100  -0.000013  -0.010552
    12  C   -0.108328  -0.004766   0.014646   0.007649   0.000004  -0.005100
    13  C   -0.029011  -0.000493   0.001769   0.014646  -0.000116  -0.007492
    14  C    0.042907   0.001139  -0.020669   0.051148  -0.000529   0.027522
    15  C    0.019228   0.000186  -0.230480  -0.112388  -0.003370   0.062761
    16  C   -0.001436  -0.000126   0.212984  -0.423027   0.031076  -0.003952
    17  H   -0.000162   0.000010  -0.009411  -0.005464   0.000088   0.001978
    18  H    0.004994  -0.000308  -0.000116   0.000004   0.000001  -0.000013
    19  H    0.000136  -0.000051   0.000683   0.000808  -0.000033  -0.000388
    20  C    0.005521  -0.000139  -0.014633  -0.015731   0.000039  -0.052432
    21  C    0.043146  -0.000420   0.000066   0.000470  -0.000043  -0.005895
    22  C    0.074803   0.001059   0.001767   0.003872   0.000010   0.009682
    23  H   -0.000544  -0.000051   0.000140  -0.000005  -0.000004   0.000407
    24  C   -0.087674   0.012037  -0.001170   0.000428   0.000004   0.003547
    25  C   -0.197942   0.005407   0.000428   0.000405  -0.000000   0.001548
    26  C    0.319061  -0.053522   0.003547   0.001548   0.000016   0.002699
    27  H   -0.001452  -0.000514  -0.000030   0.000000   0.000000   0.000007
    28  H    0.000786   0.014508   0.000004  -0.000000  -0.000000   0.000016
    29  C    0.768482  -0.024277  -0.001940  -0.001403  -0.000006  -0.001203
    30  H   -0.024277  -0.005831  -0.000010  -0.000011  -0.000000   0.000034
    31  C    5.393604   0.425612  -0.000475  -0.000664  -0.000004  -0.000656
    32  H    0.425612   0.518241  -0.000021  -0.000006   0.000000  -0.000016
    33  C   -0.000475  -0.000021   5.442597   0.948310  -0.013726  -0.287393
    34  C   -0.000664  -0.000006   0.948310   5.655429   0.378164   0.233763
    35  H   -0.000004   0.000000  -0.013726   0.378164   0.512742  -0.032816
    36  C   -0.000656  -0.000016  -0.287393   0.233763  -0.032816   5.286676
    37  H    0.000002  -0.000001   0.433760   0.002027  -0.005070   0.006252
    38  C    0.000117   0.000003  -0.087674  -0.197942   0.000786   0.319061
    39  H    0.000003   0.000000   0.012037   0.005407   0.014508  -0.053522
    40  C   -0.001203   0.000034   0.010801   0.093543  -0.004552  -0.015579
    41  C   -0.001940  -0.000010   0.002973   0.012717   0.000010   0.010801
    42  C   -0.001403  -0.000011   0.012717   0.074962   0.000005   0.093543
    43  H   -0.000006  -0.000000   0.000010   0.000005  -0.000009  -0.004552
    44  C   -0.000005   0.000003  -0.029011  -0.108328   0.004994  -0.315789
    45  H    0.000003  -0.000000  -0.000493  -0.004766  -0.000308   0.004539
    46  H    0.000003   0.000001  -0.000012   0.000144   0.000001   0.001743
              37         38         39         40         41         42
     1  C   -0.004330   0.075513   0.010498   0.372322   0.082552  -0.112897
     2  C    0.001231  -0.124202  -0.004118  -0.003937   0.035931   0.004588
     3  C   -0.001532   0.026601   0.001459   0.049704  -0.049153  -0.082804
     4  C    0.001622   0.001800  -0.001369  -0.038142  -0.027676  -0.033267
     5  C   -0.001367  -0.082318   0.006000   0.048844   0.019060   0.029419
     6  C    0.005919  -0.029537   0.001345  -0.048993  -0.096357  -0.175704
     7  C    0.000337  -0.003783  -0.000244  -0.021292  -0.066877  -0.059060
     8  C   -0.005504   0.001061   0.000881   0.014579   0.005791  -0.000225
     9  C   -0.000098   0.002614  -0.000093  -0.001230  -0.011277  -0.006818
    10  C   -0.000146   0.002141   0.000048   0.018281  -0.001151   0.006138
    11  C   -0.000388  -0.001203   0.000034   0.002699   0.003547   0.001548
    12  C    0.000808  -0.001403  -0.000011   0.001548   0.000428   0.000405
    13  C    0.000683  -0.001940  -0.000010   0.003547  -0.001170   0.000428
    14  C   -0.001162   0.005521  -0.000139   0.009682   0.001767   0.003872
    15  C    0.012966   0.043146  -0.000420  -0.005895   0.000066   0.000470
    16  C   -0.076951   0.074803   0.001059  -0.052432  -0.014633  -0.015731
    17  H    0.013762  -0.000544  -0.000051   0.000407   0.000140  -0.000005
    18  H   -0.000033  -0.000006  -0.000000   0.000016   0.000004  -0.000000
    19  H    0.000095   0.000003   0.000001   0.000007  -0.000030   0.000000
    20  C   -0.000301   0.042907   0.001139  -0.003952   0.212984  -0.423027
    21  C    0.000002   0.019228   0.000186   0.062761  -0.230480  -0.112388
    22  C    0.000005  -0.001436  -0.000126   0.027522  -0.020669   0.051148
    23  H    0.000004  -0.000162   0.000010   0.001978  -0.009411  -0.005464
    24  C   -0.000030  -0.000475  -0.000021  -0.007492   0.001769   0.014646
    25  C    0.000000  -0.000664  -0.000006  -0.005100   0.014646   0.007649
    26  C    0.000007  -0.000656  -0.000016  -0.010552  -0.007492  -0.005100
    27  H   -0.000000   0.000002  -0.000001  -0.000388   0.000683   0.000808
    28  H    0.000000  -0.000004   0.000000  -0.000013  -0.000116   0.000004
    29  C    0.000003  -0.000005   0.000003  -0.000656  -0.000475  -0.000664
    30  H    0.000001   0.000003  -0.000000  -0.000016  -0.000021  -0.000006
    31  C    0.000002   0.000117   0.000003  -0.001203  -0.001940  -0.001403
    32  H   -0.000001   0.000003   0.000000   0.000034  -0.000010  -0.000011
    33  C    0.433760  -0.087674   0.012037   0.010801   0.002973   0.012717
    34  C    0.002027  -0.197942   0.005407   0.093543   0.012717   0.074962
    35  H   -0.005070   0.000786   0.014508  -0.004552   0.000010   0.000005
    36  C    0.006252   0.319061  -0.053522  -0.015579   0.010801   0.093543
    37  H    0.511081  -0.001452  -0.000514   0.001743  -0.000012   0.000144
    38  C   -0.001452   5.393604   0.425612  -0.315789  -0.029011  -0.108328
    39  H   -0.000514   0.425612   0.518241   0.004539  -0.000493  -0.004766
    40  C    0.001743  -0.315789   0.004539   5.286676  -0.287393   0.233763
    41  C   -0.000012  -0.029011  -0.000493  -0.287393   5.442597   0.948310
    42  C    0.000144  -0.108328  -0.004766   0.233763   0.948310   5.655429
    43  H    0.000001   0.004994  -0.000308  -0.032816  -0.013726   0.378164
    44  C    0.000136   0.768482  -0.024277   0.319061  -0.087674  -0.197942
    45  H   -0.000051  -0.024277  -0.005831  -0.053522   0.012037   0.005407
    46  H    0.000001   0.000136  -0.000051   0.006252   0.433760   0.002027
              43         44         45         46
     1  C    0.003680  -0.029537   0.001345   0.005919
     2  C    0.010697  -0.082318   0.006000  -0.001367
     3  C   -0.001219   0.001800  -0.001369   0.001622
     4  C    0.000242   0.026601   0.001459  -0.001532
     5  C   -0.000987  -0.124202  -0.004118   0.001231
     6  C    0.005753   0.075513   0.010498  -0.004330
     7  C    0.000474   0.001061   0.000881  -0.005504
     8  C   -0.000022  -0.003783  -0.000244   0.000337
     9  C   -0.000016   0.002141   0.000048  -0.000146
    10  C   -0.000042   0.002614  -0.000093  -0.000098
    11  C    0.000016  -0.000656  -0.000016   0.000007
    12  C   -0.000000  -0.000664  -0.000006   0.000000
    13  C    0.000004  -0.000475  -0.000021  -0.000030
    14  C    0.000010  -0.001436  -0.000126   0.000005
    15  C   -0.000043   0.019228   0.000186   0.000002
    16  C    0.000039   0.042907   0.001139  -0.000301
    17  H   -0.000004  -0.000162   0.000010   0.000004
    18  H   -0.000000  -0.000004   0.000000   0.000000
    19  H    0.000000   0.000002  -0.000001  -0.000000
    20  C    0.031076   0.074803   0.001059  -0.076951
    21  C   -0.003370   0.043146  -0.000420   0.012966
    22  C   -0.000529   0.005521  -0.000139  -0.001162
    23  H    0.000088  -0.000544  -0.000051   0.013762
    24  C   -0.000116  -0.001940  -0.000010   0.000683
    25  C    0.000004  -0.001403  -0.000011   0.000808
    26  C   -0.000013  -0.001203   0.000034  -0.000388
    27  H   -0.000033   0.000003   0.000001   0.000095
    28  H    0.000001  -0.000006  -0.000000  -0.000033
    29  C   -0.000004   0.000117   0.000003   0.000002
    30  H    0.000000   0.000003   0.000000  -0.000001
    31  C   -0.000006  -0.000005   0.000003   0.000003
    32  H   -0.000000   0.000003  -0.000000   0.000001
    33  C    0.000010  -0.029011  -0.000493  -0.000012
    34  C    0.000005  -0.108328  -0.004766   0.000144
    35  H   -0.000009   0.004994  -0.000308   0.000001
    36  C   -0.004552  -0.315789   0.004539   0.001743
    37  H    0.000001   0.000136  -0.000051   0.000001
    38  C    0.004994   0.768482  -0.024277   0.000136
    39  H   -0.000308  -0.024277  -0.005831  -0.000051
    40  C   -0.032816   0.319061  -0.053522   0.006252
    41  C   -0.013726  -0.087674   0.012037   0.433760
    42  C    0.378164  -0.197942   0.005407   0.002027
    43  H    0.512742   0.000786   0.014508  -0.005070
    44  C    0.000786   5.393604   0.425612  -0.001452
    45  H    0.014508   0.425612   0.518241  -0.000514
    46  H   -0.005070  -0.001452  -0.000514   0.511081
 Mulliken charges:
               1
     1  C   -0.136597
     2  C   -0.132145
     3  C   -0.090418
     4  C   -0.090418
     5  C   -0.132145
     6  C   -0.136597
     7  C   -0.132145
     8  C   -0.132145
     9  C   -0.136597
    10  C   -0.136597
    11  C    0.340635
    12  C   -0.179989
    13  C   -0.285324
    14  C    0.384189
    15  C   -0.137690
    16  C    0.384189
    17  H    0.038594
    18  H    0.099588
    19  H    0.106350
    20  C    0.384189
    21  C   -0.137690
    22  C    0.384189
    23  H    0.038594
    24  C   -0.285324
    25  C   -0.179989
    26  C    0.340635
    27  H    0.106350
    28  H    0.099588
    29  C   -0.195328
    30  H    0.093377
    31  C   -0.195328
    32  H    0.093377
    33  C   -0.285324
    34  C   -0.179989
    35  H    0.099588
    36  C    0.340635
    37  H    0.106350
    38  C   -0.195328
    39  H    0.093377
    40  C    0.340635
    41  C   -0.285324
    42  C   -0.179989
    43  H    0.099588
    44  C   -0.195328
    45  H    0.093377
    46  H    0.106350
 Sum of Mulliken charges =  -0.00000
 Mulliken charges with hydrogens summed into heavy atoms:
               1
     1  C   -0.136597
     2  C   -0.132145
     3  C   -0.090418
     4  C   -0.090418
     5  C   -0.132145
     6  C   -0.136597
     7  C   -0.132145
     8  C   -0.132145
     9  C   -0.136597
    10  C   -0.136597
    11  C    0.340635
    12  C   -0.080400
    13  C   -0.178974
    14  C    0.384189
    15  C   -0.099095
    16  C    0.384189
    20  C    0.384189
    21  C   -0.099095
    22  C    0.384189
    24  C   -0.178974
    25  C   -0.080400
    26  C    0.340635
    29  C   -0.101950
    31  C   -0.101950
    33  C   -0.178974
    34  C   -0.080400
    36  C    0.340635
    38  C   -0.101950
    40  C    0.340635
    41  C   -0.178974
    42  C   -0.080400
    44  C   -0.101950
 Electronic spatial extent (au):  <R**2>=          11020.4510
 Charge=             -0.0000 electrons
 Dipole moment (field-independent basis, Debye):
    X=              0.0000    Y=             -0.0000    Z=             -0.0000  Tot=              0.0000
 Quadrupole moment (field-independent basis, Debye-Ang):
   XX=           -191.0769   YY=           -157.6068   ZZ=           -158.1315
   XY=              0.0000   XZ=             -0.0000   YZ=             -0.0000
 Traceless Quadrupole moment (field-independent basis, Debye-Ang):
   XX=            -22.1385   YY=             11.3316   ZZ=             10.8069
   XY=              0.0000   XZ=             -0.0000   YZ=             -0.0000
 Octapole moment (field-independent basis, Debye-Ang**2):
  XXX=             -0.0000  YYY=              0.0000  ZZZ=              0.0000  XYY=              0.0000
  XXY=             -0.0000  XXZ=              0.0000  XZZ=             -0.0000  YZZ=              0.0000
  YYZ=             -0.0000  XYZ=              0.0000
 Hexadecapole moment (field-independent basis, Debye-Ang**3):
 XXXX=           -223.7060 YYYY=          -8571.5997 ZZZZ=          -5430.9821 XXXY=             -0.0000
 XXXZ=              0.0000 YYYX=             -0.0000 YYYZ=              0.0000 ZZZX=              0.0000
 ZZZY=              0.0000 XXYY=          -1791.2273 XXZZ=          -1148.7697 YYZZ=          -2344.0656
 XXYZ=              0.0000 YYXZ=              0.0000 ZZXY=             -0.0000
 N-N= 2.859289196164D+03 E-N=-8.568854301236D+03  KE= 1.222913727708D+03
 Symmetry AG   KE= 3.349933695097D+02
 Symmetry B1G  KE= 8.556564318282D+00
 Symmetry B2G  KE= 8.823079474383D+00
 Symmetry B3G  KE= 2.610548793130D+02
 Symmetry AU   KE= 6.723644609379D+00
 Symmetry B1U  KE= 3.266716816182D+02
 Symmetry B2U  KE= 2.657096788249D+02
 Symmetry B3U  KE= 1.038083004001D+01
 1\1\GINC-DELL09\FOpt\RB3LYP TD-FC\6-311++G(2d,2p)\C32H14\CHEHOYEH\11-M
 ar-2023\0\\# opt=tight td=(nstates=10,root=6) b3lyp/6-311++g(2d,2p) ge
 om=connectivity empiricaldispersion=gd3bj\\Ovalene excited state optim
 ization + freq with dispersion\\0,1\C,0.,2.4549804104,0.7136585002\C,0
 .,1.2291643017,1.4204793935\C,0.,0.,0.7129778889\C,0.,0.,-0.7129778889
 \C,0.,1.2291643017,-1.4204793935\C,0.,2.4549804104,-0.7136585002\C,0.,
 -1.2291643017,1.4204793935\C,0.,-1.2291643017,-1.4204793935\C,0.,-2.45
 49804104,-0.7136585002\C,0.,-2.4549804104,0.7136585002\C,0.,-3.6912218
 04,-1.4228403963\C,0.,-3.6605659199,-2.8479807556\C,0.,-2.4766948298,-
 3.5350330182\C,0.,-1.225678787,-2.8564008467\C,0.,0.,-3.537627044\C,0.
 ,1.225678787,-2.8564008467\H,0.,0.,-4.6197664986\H,0.,-4.5995304983,-3
 .3848242671\H,0.,-2.4769944123,-4.6167700508\C,0.,1.225678787,2.856400
 8467\C,0.,0.,3.537627044\C,0.,-1.225678787,2.8564008467\H,0.,0.,4.6197
 664986\C,0.,-2.4766948298,3.5350330182\C,0.,-3.6605659199,2.8479807556
 \C,0.,-3.691221804,1.4228403963\H,0.,-2.4769944123,4.6167700508\H,0.,-
 4.5995304983,3.3848242671\C,0.,-4.8956864019,-0.6921146615\H,0.,-5.833
 4513572,-1.2313617078\C,0.,-4.8956864019,0.6921146615\H,0.,-5.83345135
 72,1.2313617078\C,0.,2.4766948298,-3.5350330182\C,0.,3.6605659199,-2.8
 479807556\H,0.,4.5995304983,-3.3848242671\C,0.,3.691221804,-1.42284039
 63\H,0.,2.4769944123,-4.6167700508\C,0.,4.8956864019,-0.6921146615\H,0
 .,5.8334513572,-1.2313617078\C,0.,3.691221804,1.4228403963\C,0.,2.4766
 948298,3.5350330182\C,0.,3.6605659199,2.8479807556\H,0.,4.5995304983,3
 .3848242671\C,0.,4.8956864019,0.6921146615\H,0.,5.8334513572,1.2313617
 078\H,0.,2.4769944123,4.6167700508\\Version=EM64L-G16RevA.03\State=1-A
 G\HF=-1228.4606924\RMSD=7.365e-09\RMSF=4.766e-07\Dipole=0.,0.,0.\PG=D0
 2H [C2"(H1C1C1.C1C1H1),SG(C28H12)]\\@


 I am not a vegetarian because I love animals;
 I am a vegetarian because I hate plants.
                               -- A. Whitney Brown
 Job cpu time:      13 days  7 hours  7 minutes 48.0 seconds.
 Elapsed time:       0 days 18 hours 38 minutes 38.6 seconds.
 File lengths (MBytes):  RWF=   5902 Int=      0 D2E=      0 Chk=    439 Scr=      1
 Normal termination of Gaussian 16 at Sat Mar 11 05:41:09 2023.
1143260.50user 5608.58system 18:39:00elapsed 1711%CPU (0avgtext+0avgdata 18368768maxresident)k
79816inputs+87215208outputs (5major+1011376915minor)pagefaults 0swaps
