 Entering Gaussian System, Link 0=g16
 Input=/home/giogina/Gaussian/ovalene disp/2nd excited nstates=10/ovalene-excited-2-opt-freq-disp.gjf
 Output=/home/giogina/Gaussian/ovalene disp/2nd excited nstates=10/ovalene-excited-2-opt-freq-disp.log
 Initial command:
 /opt//g16/l1.exe "/opt/g16/scratch/Gau-2089643.inp" -scrdir="/opt/g16/scratch/"
 Default is to use a total of  12 processors:
                               12 via shared-memory
                                1 via Linda
 Entering Link 1 = /opt//g16/l1.exe PID=   2089646.
  
 Copyright (c) 1988,1990,1992,1993,1995,1998,2003,2009,2016,
            Gaussian, Inc.  All Rights Reserved.
  
 This is part of the Gaussian(R) 16 program.  It is based on
 the Gaussian(R) 09 system (copyright 2009, Gaussian, Inc.),
 the Gaussian(R) 03 system (copyright 2003, Gaussian, Inc.),
 the Gaussian(R) 98 system (copyright 1998, Gaussian, Inc.),
 the Gaussian(R) 94 system (copyright 1995, Gaussian, Inc.),
 the Gaussian 92(TM) system (copyright 1992, Gaussian, Inc.),
 the Gaussian 90(TM) system (copyright 1990, Gaussian, Inc.),
 the Gaussian 88(TM) system (copyright 1988, Gaussian, Inc.),
 the Gaussian 86(TM) system (copyright 1986, Carnegie Mellon
 University), and the Gaussian 82(TM) system (copyright 1983,
 Carnegie Mellon University). Gaussian is a federally registered
 trademark of Gaussian, Inc.
  
 This software contains proprietary and confidential information,
 including trade secrets, belonging to Gaussian, Inc.
  
 This software is provided under written license and may be
 used, copied, transmitted, or stored only in accord with that
 written license.
  
 The following legend is applicable only to US Government
 contracts under FAR:
  
                    RESTRICTED RIGHTS LEGEND
  
 Use, reproduction and disclosure by the US Government is
 subject to restrictions as set forth in subparagraphs (a)
 and (c) of the Commercial Computer Software - Restricted
 Rights clause in FAR 52.227-19.
  
 Gaussian, Inc.
 340 Quinnipiac St., Bldg. 40, Wallingford CT 06492
  
  
 ---------------------------------------------------------------
 Warning -- This program may not be used in any manner that
 competes with the business of Gaussian, Inc. or will provide
 assistance to any competitor of Gaussian, Inc.  The licensee
 of this program is prohibited from giving any competitor of
 Gaussian, Inc. access to this program.  By using this program,
 the user acknowledges that Gaussian, Inc. is engaged in the
 business of creating and licensing software in the field of
 computational chemistry and represents and warrants to the
 licensee that it is not a competitor of Gaussian, Inc. and that
 it will not use this program in any manner prohibited above.
 ---------------------------------------------------------------
  
 Cite this work as:
 Gaussian 16, Revision A.03,
 M. J. Frisch, G. W. Trucks, H. B. Schlegel, G. E. Scuseria, 
 M. A. Robb, J. R. Cheeseman, G. Scalmani, V. Barone, 
 G. A. Petersson, H. Nakatsuji, X. Li, M. Caricato, A. V. Marenich, 
 J. Bloino, B. G. Janesko, R. Gomperts, B. Mennucci, H. P. Hratchian, 
 J. V. Ortiz, A. F. Izmaylov, J. L. Sonnenberg, D. Williams-Young, 
 F. Ding, F. Lipparini, F. Egidi, J. Goings, B. Peng, A. Petrone, 
 T. Henderson, D. Ranasinghe, V. G. Zakrzewski, J. Gao, N. Rega, 
 G. Zheng, W. Liang, M. Hada, M. Ehara, K. Toyota, R. Fukuda, 
 J. Hasegawa, M. Ishida, T. Nakajima, Y. Honda, O. Kitao, H. Nakai, 
 T. Vreven, K. Throssell, J. A. Montgomery, Jr., J. E. Peralta, 
 F. Ogliaro, M. J. Bearpark, J. J. Heyd, E. N. Brothers, K. N. Kudin, 
 V. N. Staroverov, T. A. Keith, R. Kobayashi, J. Normand, 
 K. Raghavachari, A. P. Rendell, J. C. Burant, S. S. Iyengar, 
 J. Tomasi, M. Cossi, J. M. Millam, M. Klene, C. Adamo, R. Cammi, 
 J. W. Ochterski, R. L. Martin, K. Morokuma, O. Farkas, 
 J. B. Foresman, and D. J. Fox, Gaussian, Inc., Wallingford CT, 2016.
 
 ******************************************
 Gaussian 16:  ES64L-G16RevA.03 25-Dec-2016
                27-Feb-2023 
 ******************************************
 %mem=20GB
 %nprocshared=18
 Will use up to   18 processors via shared memory.
 %chk=ovalene-excited-2-opt-freq-disp.chk
 ----------------------------------------------------------------------
 # opt=tight freq=(savenormalmodes,hpmodes) td=(nstates=10,root=2) b3ly
 p/6-311++g(2d,2p) geom=connectivity empiricaldispersion=gd3bj
 ----------------------------------------------------------------------
 1/7=10,18=20,19=15,26=3,38=1,57=2/1,3;
 2/9=110,12=2,17=6,18=5,40=1/2;
 3/5=4,6=6,7=1212,11=9,25=1,30=1,71=1,74=-5,124=41/1,2,3,8;
 4//1;
 5/5=2,38=5/2;
 8/6=1,10=2,107=2,108=10/1;
 9/8=2,15=2,41=10,42=1,70=2/14;
 10/5=4,28=2/2;
 6/7=2,8=2,9=2,10=2/1;
 7/12=6,13=5,14=2,92=1/1,2,3,16;
 1/7=10,18=20,19=15,26=3/3(2);
 2/9=110/2;
 99//99;
 2/9=110/2;
 3/5=4,6=6,7=1212,11=9,25=1,30=1,71=1,74=-5,124=41/1,2,3,8;
 4/5=5,16=3,69=1/1;
 5/5=2,38=5/2;
 8/6=1,10=2,107=2,108=10/1;
 9/8=2,15=2,41=10,42=1,49=4,70=2/14;
 10/5=4,28=2/2;
 7/12=6,13=5,14=2,92=1/1,2,3,16;
 1/7=10,18=20,19=15,26=3/3(-8);
 2/9=110/2;
 6/7=2,8=2,9=2,10=2/1;
 99//99;
 ---------------------------------------------------------
 Ovalene excited state optimization + freq with dispersion
 ---------------------------------------------------------
 Symbolic Z-matrix:
 Charge =  0 Multiplicity = 1
 C                     0.        2.45109   0.71361 
 C                     0.        1.23145   1.41802 
 C                     0.        0.        0.70855 
 C                     0.        0.       -0.70855 
 C                     0.        1.23145  -1.41802 
 C                     0.        2.45109  -0.71361 
 C                     0.       -1.23145   1.41802 
 C                     0.       -1.23145  -1.41802 
 C                     0.       -2.45109  -0.71361 
 C                     0.       -2.45109   0.71361 
 C                     0.       -3.69199  -1.42404 
 C                     0.       -3.65887  -2.84756 
 C                     0.       -2.47491  -3.53435 
 C                     0.       -1.22515  -2.85657 
 C                     0.        0.       -3.53517 
 C                     0.        1.22515  -2.85657 
 H                     0.        0.       -4.6174 
 H                     0.       -4.59722  -3.38557 
 H                     0.       -2.47569  -4.61601 
 C                     0.        1.22515   2.85657 
 C                     0.        0.        3.53517 
 C                     0.       -1.22515   2.85657 
 H                     0.        0.        4.6174 
 C                     0.       -2.47491   3.53435 
 C                     0.       -3.65887   2.84756 
 C                     0.       -3.69199   1.42404 
 H                     0.       -2.47569   4.61601 
 H                     0.       -4.59722   3.38557 
 C                     0.       -4.89502  -0.69326 
 H                     0.       -5.83296  -1.23161 
 C                     0.       -4.89502   0.69326 
 H                     0.       -5.83296   1.23161 
 C                     0.        2.47491  -3.53435 
 C                     0.        3.65887  -2.84756 
 H                     0.        4.59722  -3.38557 
 C                     0.        3.69199  -1.42404 
 H                     0.        2.47569  -4.61601 
 C                     0.        4.89502  -0.69326 
 H                     0.        5.83296  -1.23161 
 C                     0.        3.69199   1.42404 
 C                     0.        2.47491   3.53435 
 C                     0.        3.65887   2.84756 
 H                     0.        4.59722   3.38557 
 C                     0.        4.89502   0.69326 
 H                     0.        5.83296   1.23161 
 H                     0.        2.47569   4.61601 
 
 GradGradGradGradGradGradGradGradGradGradGradGradGradGradGradGradGradGrad
 Berny optimization.
 Initialization pass.
                           ----------------------------
                           !    Initial Parameters    !
                           ! (Angstroms and Degrees)  !
 --------------------------                            --------------------------
 ! Name  Definition              Value          Derivative Info.                !
 --------------------------------------------------------------------------------
 ! R1    R(1,2)                  1.4084         estimate D2E/DX2                !
 ! R2    R(1,6)                  1.4272         estimate D2E/DX2                !
 ! R3    R(1,40)                 1.4299         estimate D2E/DX2                !
 ! R4    R(2,3)                  1.4212         estimate D2E/DX2                !
 ! R5    R(2,20)                 1.4386         estimate D2E/DX2                !
 ! R6    R(3,4)                  1.4171         estimate D2E/DX2                !
 ! R7    R(3,7)                  1.4212         estimate D2E/DX2                !
 ! R8    R(4,5)                  1.4212         estimate D2E/DX2                !
 ! R9    R(4,8)                  1.4212         estimate D2E/DX2                !
 ! R10   R(5,6)                  1.4084         estimate D2E/DX2                !
 ! R11   R(5,16)                 1.4386         estimate D2E/DX2                !
 ! R12   R(6,36)                 1.4299         estimate D2E/DX2                !
 ! R13   R(7,10)                 1.4084         estimate D2E/DX2                !
 ! R14   R(7,22)                 1.4386         estimate D2E/DX2                !
 ! R15   R(8,9)                  1.4084         estimate D2E/DX2                !
 ! R16   R(8,14)                 1.4386         estimate D2E/DX2                !
 ! R17   R(9,10)                 1.4272         estimate D2E/DX2                !
 ! R18   R(9,11)                 1.4299         estimate D2E/DX2                !
 ! R19   R(10,26)                1.4299         estimate D2E/DX2                !
 ! R20   R(11,12)                1.4239         estimate D2E/DX2                !
 ! R21   R(11,29)                1.4076         estimate D2E/DX2                !
 ! R22   R(12,13)                1.3687         estimate D2E/DX2                !
 ! R23   R(12,18)                1.0816         estimate D2E/DX2                !
 ! R24   R(13,14)                1.4217         estimate D2E/DX2                !
 ! R25   R(13,19)                1.0817         estimate D2E/DX2                !
 ! R26   R(14,15)                1.4005         estimate D2E/DX2                !
 ! R27   R(15,16)                1.4005         estimate D2E/DX2                !
 ! R28   R(15,17)                1.0822         estimate D2E/DX2                !
 ! R29   R(16,33)                1.4217         estimate D2E/DX2                !
 ! R30   R(20,21)                1.4005         estimate D2E/DX2                !
 ! R31   R(20,41)                1.4217         estimate D2E/DX2                !
 ! R32   R(21,22)                1.4005         estimate D2E/DX2                !
 ! R33   R(21,23)                1.0822         estimate D2E/DX2                !
 ! R34   R(22,24)                1.4217         estimate D2E/DX2                !
 ! R35   R(24,25)                1.3687         estimate D2E/DX2                !
 ! R36   R(24,27)                1.0817         estimate D2E/DX2                !
 ! R37   R(25,26)                1.4239         estimate D2E/DX2                !
 ! R38   R(25,28)                1.0816         estimate D2E/DX2                !
 ! R39   R(26,31)                1.4076         estimate D2E/DX2                !
 ! R40   R(29,30)                1.0815         estimate D2E/DX2                !
 ! R41   R(29,31)                1.3865         estimate D2E/DX2                !
 ! R42   R(31,32)                1.0815         estimate D2E/DX2                !
 ! R43   R(33,34)                1.3687         estimate D2E/DX2                !
 ! R44   R(33,37)                1.0817         estimate D2E/DX2                !
 ! R45   R(34,35)                1.0816         estimate D2E/DX2                !
 ! R46   R(34,36)                1.4239         estimate D2E/DX2                !
 ! R47   R(36,38)                1.4076         estimate D2E/DX2                !
 ! R48   R(38,39)                1.0815         estimate D2E/DX2                !
 ! R49   R(38,44)                1.3865         estimate D2E/DX2                !
 ! R50   R(40,42)                1.4239         estimate D2E/DX2                !
 ! R51   R(40,44)                1.4076         estimate D2E/DX2                !
 ! R52   R(41,42)                1.3687         estimate D2E/DX2                !
 ! R53   R(41,46)                1.0817         estimate D2E/DX2                !
 ! R54   R(42,43)                1.0816         estimate D2E/DX2                !
 ! R55   R(44,45)                1.0815         estimate D2E/DX2                !
 ! A1    A(2,1,6)              120.009          estimate D2E/DX2                !
 ! A2    A(2,1,40)             120.1994         estimate D2E/DX2                !
 ! A3    A(6,1,40)             119.7917         estimate D2E/DX2                !
 ! A4    A(1,2,3)              120.0434         estimate D2E/DX2                !
 ! A5    A(1,2,20)             120.2599         estimate D2E/DX2                !
 ! A6    A(3,2,20)             119.6967         estimate D2E/DX2                !
 ! A7    A(2,3,4)              119.9476         estimate D2E/DX2                !
 ! A8    A(2,3,7)              120.1048         estimate D2E/DX2                !
 ! A9    A(4,3,7)              119.9476         estimate D2E/DX2                !
 ! A10   A(3,4,5)              119.9476         estimate D2E/DX2                !
 ! A11   A(3,4,8)              119.9476         estimate D2E/DX2                !
 ! A12   A(5,4,8)              120.1048         estimate D2E/DX2                !
 ! A13   A(4,5,6)              120.0434         estimate D2E/DX2                !
 ! A14   A(4,5,16)             119.6967         estimate D2E/DX2                !
 ! A15   A(6,5,16)             120.2599         estimate D2E/DX2                !
 ! A16   A(1,6,5)              120.009          estimate D2E/DX2                !
 ! A17   A(1,6,36)             119.7917         estimate D2E/DX2                !
 ! A18   A(5,6,36)             120.1994         estimate D2E/DX2                !
 ! A19   A(3,7,10)             120.0434         estimate D2E/DX2                !
 ! A20   A(3,7,22)             119.6967         estimate D2E/DX2                !
 ! A21   A(10,7,22)            120.2599         estimate D2E/DX2                !
 ! A22   A(4,8,9)              120.0434         estimate D2E/DX2                !
 ! A23   A(4,8,14)             119.6967         estimate D2E/DX2                !
 ! A24   A(9,8,14)             120.2599         estimate D2E/DX2                !
 ! A25   A(8,9,10)             120.009          estimate D2E/DX2                !
 ! A26   A(8,9,11)             120.1994         estimate D2E/DX2                !
 ! A27   A(10,9,11)            119.7917         estimate D2E/DX2                !
 ! A28   A(7,10,9)             120.009          estimate D2E/DX2                !
 ! A29   A(7,10,26)            120.1994         estimate D2E/DX2                !
 ! A30   A(9,10,26)            119.7917         estimate D2E/DX2                !
 ! A31   A(9,11,12)            118.4587         estimate D2E/DX2                !
 ! A32   A(9,11,29)            118.9316         estimate D2E/DX2                !
 ! A33   A(12,11,29)           122.6098         estimate D2E/DX2                !
 ! A34   A(11,12,13)           121.4504         estimate D2E/DX2                !
 ! A35   A(11,12,18)           118.4953         estimate D2E/DX2                !
 ! A36   A(13,12,18)           120.0543         estimate D2E/DX2                !
 ! A37   A(12,13,14)           121.4104         estimate D2E/DX2                !
 ! A38   A(12,13,19)           120.076          estimate D2E/DX2                !
 ! A39   A(14,13,19)           118.5136         estimate D2E/DX2                !
 ! A40   A(8,14,13)            118.2213         estimate D2E/DX2                !
 ! A41   A(8,14,15)            119.2324         estimate D2E/DX2                !
 ! A42   A(13,14,15)           122.5462         estimate D2E/DX2                !
 ! A43   A(14,15,16)           122.0369         estimate D2E/DX2                !
 ! A44   A(14,15,17)           118.9816         estimate D2E/DX2                !
 ! A45   A(16,15,17)           118.9816         estimate D2E/DX2                !
 ! A46   A(5,16,15)            119.2324         estimate D2E/DX2                !
 ! A47   A(5,16,33)            118.2213         estimate D2E/DX2                !
 ! A48   A(15,16,33)           122.5462         estimate D2E/DX2                !
 ! A49   A(2,20,21)            119.2324         estimate D2E/DX2                !
 ! A50   A(2,20,41)            118.2213         estimate D2E/DX2                !
 ! A51   A(21,20,41)           122.5462         estimate D2E/DX2                !
 ! A52   A(20,21,22)           122.0369         estimate D2E/DX2                !
 ! A53   A(20,21,23)           118.9816         estimate D2E/DX2                !
 ! A54   A(22,21,23)           118.9816         estimate D2E/DX2                !
 ! A55   A(7,22,21)            119.2324         estimate D2E/DX2                !
 ! A56   A(7,22,24)            118.2213         estimate D2E/DX2                !
 ! A57   A(21,22,24)           122.5462         estimate D2E/DX2                !
 ! A58   A(22,24,25)           121.4104         estimate D2E/DX2                !
 ! A59   A(22,24,27)           118.5136         estimate D2E/DX2                !
 ! A60   A(25,24,27)           120.076          estimate D2E/DX2                !
 ! A61   A(24,25,26)           121.4504         estimate D2E/DX2                !
 ! A62   A(24,25,28)           120.0543         estimate D2E/DX2                !
 ! A63   A(26,25,28)           118.4953         estimate D2E/DX2                !
 ! A64   A(10,26,25)           118.4587         estimate D2E/DX2                !
 ! A65   A(10,26,31)           118.9316         estimate D2E/DX2                !
 ! A66   A(25,26,31)           122.6098         estimate D2E/DX2                !
 ! A67   A(11,29,30)           118.8683         estimate D2E/DX2                !
 ! A68   A(11,29,31)           121.2768         estimate D2E/DX2                !
 ! A69   A(30,29,31)           119.8549         estimate D2E/DX2                !
 ! A70   A(26,31,29)           121.2768         estimate D2E/DX2                !
 ! A71   A(26,31,32)           118.8683         estimate D2E/DX2                !
 ! A72   A(29,31,32)           119.8549         estimate D2E/DX2                !
 ! A73   A(16,33,34)           121.4104         estimate D2E/DX2                !
 ! A74   A(16,33,37)           118.5136         estimate D2E/DX2                !
 ! A75   A(34,33,37)           120.076          estimate D2E/DX2                !
 ! A76   A(33,34,35)           120.0543         estimate D2E/DX2                !
 ! A77   A(33,34,36)           121.4504         estimate D2E/DX2                !
 ! A78   A(35,34,36)           118.4953         estimate D2E/DX2                !
 ! A79   A(6,36,34)            118.4587         estimate D2E/DX2                !
 ! A80   A(6,36,38)            118.9316         estimate D2E/DX2                !
 ! A81   A(34,36,38)           122.6098         estimate D2E/DX2                !
 ! A82   A(36,38,39)           118.8683         estimate D2E/DX2                !
 ! A83   A(36,38,44)           121.2768         estimate D2E/DX2                !
 ! A84   A(39,38,44)           119.8549         estimate D2E/DX2                !
 ! A85   A(1,40,42)            118.4587         estimate D2E/DX2                !
 ! A86   A(1,40,44)            118.9316         estimate D2E/DX2                !
 ! A87   A(42,40,44)           122.6098         estimate D2E/DX2                !
 ! A88   A(20,41,42)           121.4104         estimate D2E/DX2                !
 ! A89   A(20,41,46)           118.5136         estimate D2E/DX2                !
 ! A90   A(42,41,46)           120.076          estimate D2E/DX2                !
 ! A91   A(40,42,41)           121.4504         estimate D2E/DX2                !
 ! A92   A(40,42,43)           118.4953         estimate D2E/DX2                !
 ! A93   A(41,42,43)           120.0543         estimate D2E/DX2                !
 ! A94   A(38,44,40)           121.2768         estimate D2E/DX2                !
 ! A95   A(38,44,45)           119.8549         estimate D2E/DX2                !
 ! A96   A(40,44,45)           118.8683         estimate D2E/DX2                !
 ! D1    D(6,1,2,3)              0.0            estimate D2E/DX2                !
 ! D2    D(6,1,2,20)           180.0            estimate D2E/DX2                !
 ! D3    D(40,1,2,3)           180.0            estimate D2E/DX2                !
 ! D4    D(40,1,2,20)            0.0            estimate D2E/DX2                !
 ! D5    D(2,1,6,5)              0.0            estimate D2E/DX2                !
 ! D6    D(2,1,6,36)           180.0            estimate D2E/DX2                !
 ! D7    D(40,1,6,5)           180.0            estimate D2E/DX2                !
 ! D8    D(40,1,6,36)            0.0            estimate D2E/DX2                !
 ! D9    D(2,1,40,42)            0.0            estimate D2E/DX2                !
 ! D10   D(2,1,40,44)          180.0            estimate D2E/DX2                !
 ! D11   D(6,1,40,42)          180.0            estimate D2E/DX2                !
 ! D12   D(6,1,40,44)            0.0            estimate D2E/DX2                !
 ! D13   D(1,2,3,4)              0.0            estimate D2E/DX2                !
 ! D14   D(1,2,3,7)            180.0            estimate D2E/DX2                !
 ! D15   D(20,2,3,4)           180.0            estimate D2E/DX2                !
 ! D16   D(20,2,3,7)             0.0            estimate D2E/DX2                !
 ! D17   D(1,2,20,21)          180.0            estimate D2E/DX2                !
 ! D18   D(1,2,20,41)            0.0            estimate D2E/DX2                !
 ! D19   D(3,2,20,21)            0.0            estimate D2E/DX2                !
 ! D20   D(3,2,20,41)          180.0            estimate D2E/DX2                !
 ! D21   D(2,3,4,5)              0.0            estimate D2E/DX2                !
 ! D22   D(2,3,4,8)            180.0            estimate D2E/DX2                !
 ! D23   D(7,3,4,5)            180.0            estimate D2E/DX2                !
 ! D24   D(7,3,4,8)              0.0            estimate D2E/DX2                !
 ! D25   D(2,3,7,10)           180.0            estimate D2E/DX2                !
 ! D26   D(2,3,7,22)             0.0            estimate D2E/DX2                !
 ! D27   D(4,3,7,10)             0.0            estimate D2E/DX2                !
 ! D28   D(4,3,7,22)           180.0            estimate D2E/DX2                !
 ! D29   D(3,4,5,6)              0.0            estimate D2E/DX2                !
 ! D30   D(3,4,5,16)           180.0            estimate D2E/DX2                !
 ! D31   D(8,4,5,6)            180.0            estimate D2E/DX2                !
 ! D32   D(8,4,5,16)             0.0            estimate D2E/DX2                !
 ! D33   D(3,4,8,9)              0.0            estimate D2E/DX2                !
 ! D34   D(3,4,8,14)           180.0            estimate D2E/DX2                !
 ! D35   D(5,4,8,9)            180.0            estimate D2E/DX2                !
 ! D36   D(5,4,8,14)             0.0            estimate D2E/DX2                !
 ! D37   D(4,5,6,1)              0.0            estimate D2E/DX2                !
 ! D38   D(4,5,6,36)           180.0            estimate D2E/DX2                !
 ! D39   D(16,5,6,1)           180.0            estimate D2E/DX2                !
 ! D40   D(16,5,6,36)            0.0            estimate D2E/DX2                !
 ! D41   D(4,5,16,15)            0.0            estimate D2E/DX2                !
 ! D42   D(4,5,16,33)          180.0            estimate D2E/DX2                !
 ! D43   D(6,5,16,15)          180.0            estimate D2E/DX2                !
 ! D44   D(6,5,16,33)            0.0            estimate D2E/DX2                !
 ! D45   D(1,6,36,34)          180.0            estimate D2E/DX2                !
 ! D46   D(1,6,36,38)            0.0            estimate D2E/DX2                !
 ! D47   D(5,6,36,34)            0.0            estimate D2E/DX2                !
 ! D48   D(5,6,36,38)          180.0            estimate D2E/DX2                !
 ! D49   D(3,7,10,9)             0.0            estimate D2E/DX2                !
 ! D50   D(3,7,10,26)          180.0            estimate D2E/DX2                !
 ! D51   D(22,7,10,9)          180.0            estimate D2E/DX2                !
 ! D52   D(22,7,10,26)           0.0            estimate D2E/DX2                !
 ! D53   D(3,7,22,21)            0.0            estimate D2E/DX2                !
 ! D54   D(3,7,22,24)          180.0            estimate D2E/DX2                !
 ! D55   D(10,7,22,21)         180.0            estimate D2E/DX2                !
 ! D56   D(10,7,22,24)           0.0            estimate D2E/DX2                !
 ! D57   D(4,8,9,10)             0.0            estimate D2E/DX2                !
 ! D58   D(4,8,9,11)           180.0            estimate D2E/DX2                !
 ! D59   D(14,8,9,10)          180.0            estimate D2E/DX2                !
 ! D60   D(14,8,9,11)            0.0            estimate D2E/DX2                !
 ! D61   D(4,8,14,13)          180.0            estimate D2E/DX2                !
 ! D62   D(4,8,14,15)            0.0            estimate D2E/DX2                !
 ! D63   D(9,8,14,13)            0.0            estimate D2E/DX2                !
 ! D64   D(9,8,14,15)          180.0            estimate D2E/DX2                !
 ! D65   D(8,9,10,7)             0.0            estimate D2E/DX2                !
 ! D66   D(8,9,10,26)          180.0            estimate D2E/DX2                !
 ! D67   D(11,9,10,7)          180.0            estimate D2E/DX2                !
 ! D68   D(11,9,10,26)           0.0            estimate D2E/DX2                !
 ! D69   D(8,9,11,12)            0.0            estimate D2E/DX2                !
 ! D70   D(8,9,11,29)          180.0            estimate D2E/DX2                !
 ! D71   D(10,9,11,12)         180.0            estimate D2E/DX2                !
 ! D72   D(10,9,11,29)           0.0            estimate D2E/DX2                !
 ! D73   D(7,10,26,25)           0.0            estimate D2E/DX2                !
 ! D74   D(7,10,26,31)         180.0            estimate D2E/DX2                !
 ! D75   D(9,10,26,25)         180.0            estimate D2E/DX2                !
 ! D76   D(9,10,26,31)           0.0            estimate D2E/DX2                !
 ! D77   D(9,11,12,13)           0.0            estimate D2E/DX2                !
 ! D78   D(9,11,12,18)         180.0            estimate D2E/DX2                !
 ! D79   D(29,11,12,13)        180.0            estimate D2E/DX2                !
 ! D80   D(29,11,12,18)          0.0            estimate D2E/DX2                !
 ! D81   D(9,11,29,30)         180.0            estimate D2E/DX2                !
 ! D82   D(9,11,29,31)           0.0            estimate D2E/DX2                !
 ! D83   D(12,11,29,30)          0.0            estimate D2E/DX2                !
 ! D84   D(12,11,29,31)        180.0            estimate D2E/DX2                !
 ! D85   D(11,12,13,14)          0.0            estimate D2E/DX2                !
 ! D86   D(11,12,13,19)        180.0            estimate D2E/DX2                !
 ! D87   D(18,12,13,14)        180.0            estimate D2E/DX2                !
 ! D88   D(18,12,13,19)          0.0            estimate D2E/DX2                !
 ! D89   D(12,13,14,8)           0.0            estimate D2E/DX2                !
 ! D90   D(12,13,14,15)        180.0            estimate D2E/DX2                !
 ! D91   D(19,13,14,8)         180.0            estimate D2E/DX2                !
 ! D92   D(19,13,14,15)          0.0            estimate D2E/DX2                !
 ! D93   D(8,14,15,16)           0.0            estimate D2E/DX2                !
 ! D94   D(8,14,15,17)         180.0            estimate D2E/DX2                !
 ! D95   D(13,14,15,16)        180.0            estimate D2E/DX2                !
 ! D96   D(13,14,15,17)          0.0            estimate D2E/DX2                !
 ! D97   D(14,15,16,5)           0.0            estimate D2E/DX2                !
 ! D98   D(14,15,16,33)        180.0            estimate D2E/DX2                !
 ! D99   D(17,15,16,5)         180.0            estimate D2E/DX2                !
 ! D100  D(17,15,16,33)          0.0            estimate D2E/DX2                !
 ! D101  D(5,16,33,34)           0.0            estimate D2E/DX2                !
 ! D102  D(5,16,33,37)         180.0            estimate D2E/DX2                !
 ! D103  D(15,16,33,34)        180.0            estimate D2E/DX2                !
 ! D104  D(15,16,33,37)          0.0            estimate D2E/DX2                !
 ! D105  D(2,20,21,22)           0.0            estimate D2E/DX2                !
 ! D106  D(2,20,21,23)         180.0            estimate D2E/DX2                !
 ! D107  D(41,20,21,22)        180.0            estimate D2E/DX2                !
 ! D108  D(41,20,21,23)          0.0            estimate D2E/DX2                !
 ! D109  D(2,20,41,42)           0.0            estimate D2E/DX2                !
 ! D110  D(2,20,41,46)         180.0            estimate D2E/DX2                !
 ! D111  D(21,20,41,42)        180.0            estimate D2E/DX2                !
 ! D112  D(21,20,41,46)          0.0            estimate D2E/DX2                !
 ! D113  D(20,21,22,7)           0.0            estimate D2E/DX2                !
 ! D114  D(20,21,22,24)        180.0            estimate D2E/DX2                !
 ! D115  D(23,21,22,7)         180.0            estimate D2E/DX2                !
 ! D116  D(23,21,22,24)          0.0            estimate D2E/DX2                !
 ! D117  D(7,22,24,25)           0.0            estimate D2E/DX2                !
 ! D118  D(7,22,24,27)         180.0            estimate D2E/DX2                !
 ! D119  D(21,22,24,25)        180.0            estimate D2E/DX2                !
 ! D120  D(21,22,24,27)          0.0            estimate D2E/DX2                !
 ! D121  D(22,24,25,26)          0.0            estimate D2E/DX2                !
 ! D122  D(22,24,25,28)        180.0            estimate D2E/DX2                !
 ! D123  D(27,24,25,26)        180.0            estimate D2E/DX2                !
 ! D124  D(27,24,25,28)          0.0            estimate D2E/DX2                !
 ! D125  D(24,25,26,10)          0.0            estimate D2E/DX2                !
 ! D126  D(24,25,26,31)        180.0            estimate D2E/DX2                !
 ! D127  D(28,25,26,10)        180.0            estimate D2E/DX2                !
 ! D128  D(28,25,26,31)          0.0            estimate D2E/DX2                !
 ! D129  D(10,26,31,29)          0.0            estimate D2E/DX2                !
 ! D130  D(10,26,31,32)        180.0            estimate D2E/DX2                !
 ! D131  D(25,26,31,29)        180.0            estimate D2E/DX2                !
 ! D132  D(25,26,31,32)          0.0            estimate D2E/DX2                !
 ! D133  D(11,29,31,26)          0.0            estimate D2E/DX2                !
 ! D134  D(11,29,31,32)        180.0            estimate D2E/DX2                !
 ! D135  D(30,29,31,26)        180.0            estimate D2E/DX2                !
 ! D136  D(30,29,31,32)          0.0            estimate D2E/DX2                !
 ! D137  D(16,33,34,35)        180.0            estimate D2E/DX2                !
 ! D138  D(16,33,34,36)          0.0            estimate D2E/DX2                !
 ! D139  D(37,33,34,35)          0.0            estimate D2E/DX2                !
 ! D140  D(37,33,34,36)        180.0            estimate D2E/DX2                !
 ! D141  D(33,34,36,6)           0.0            estimate D2E/DX2                !
 ! D142  D(33,34,36,38)        180.0            estimate D2E/DX2                !
 ! D143  D(35,34,36,6)         180.0            estimate D2E/DX2                !
 ! D144  D(35,34,36,38)          0.0            estimate D2E/DX2                !
 ! D145  D(6,36,38,39)         180.0            estimate D2E/DX2                !
 ! D146  D(6,36,38,44)           0.0            estimate D2E/DX2                !
 ! D147  D(34,36,38,39)          0.0            estimate D2E/DX2                !
 ! D148  D(34,36,38,44)        180.0            estimate D2E/DX2                !
 ! D149  D(36,38,44,40)          0.0            estimate D2E/DX2                !
 ! D150  D(36,38,44,45)        180.0            estimate D2E/DX2                !
 ! D151  D(39,38,44,40)        180.0            estimate D2E/DX2                !
 ! D152  D(39,38,44,45)          0.0            estimate D2E/DX2                !
 ! D153  D(1,40,42,41)           0.0            estimate D2E/DX2                !
 ! D154  D(1,40,42,43)         180.0            estimate D2E/DX2                !
 ! D155  D(44,40,42,41)        180.0            estimate D2E/DX2                !
 ! D156  D(44,40,42,43)          0.0            estimate D2E/DX2                !
 ! D157  D(1,40,44,38)           0.0            estimate D2E/DX2                !
 ! D158  D(1,40,44,45)         180.0            estimate D2E/DX2                !
 ! D159  D(42,40,44,38)        180.0            estimate D2E/DX2                !
 ! D160  D(42,40,44,45)          0.0            estimate D2E/DX2                !
 ! D161  D(20,41,42,40)          0.0            estimate D2E/DX2                !
 ! D162  D(20,41,42,43)        180.0            estimate D2E/DX2                !
 ! D163  D(46,41,42,40)        180.0            estimate D2E/DX2                !
 ! D164  D(46,41,42,43)          0.0            estimate D2E/DX2                !
 --------------------------------------------------------------------------------
 Trust Radius=3.00D-01 FncErr=1.00D-07 GrdErr=1.00D-06 EigMax=2.50D+02 EigMin=1.00D-04
 Number of steps in this run=    276 maximum allowed number of steps=    276.
 GradGradGradGradGradGradGradGradGradGradGradGradGradGradGradGradGradGrad
                          Input orientation:                          
 ---------------------------------------------------------------------
 Center     Atomic      Atomic             Coordinates (Angstroms)
 Number     Number       Type             X           Y           Z
 ---------------------------------------------------------------------
      1          6           0        0.000000    2.451090    0.713610
      2          6           0        0.000000    1.231452    1.418023
      3          6           0        0.000000    0.000000    0.708545
      4          6           0        0.000000    0.000000   -0.708545
      5          6           0        0.000000    1.231452   -1.418023
      6          6           0        0.000000    2.451090   -0.713610
      7          6           0        0.000000   -1.231452    1.418023
      8          6           0        0.000000   -1.231452   -1.418023
      9          6           0        0.000000   -2.451090   -0.713610
     10          6           0        0.000000   -2.451090    0.713610
     11          6           0        0.000000   -3.691992   -1.424042
     12          6           0        0.000000   -3.658867   -2.847556
     13          6           0        0.000000   -2.474912   -3.534351
     14          6           0        0.000000   -1.225152   -2.856571
     15          6           0        0.000000    0.000000   -3.535168
     16          6           0        0.000000    1.225152   -2.856571
     17          1           0        0.000000    0.000000   -4.617405
     18          1           0        0.000000   -4.597217   -3.385569
     19          1           0        0.000000   -2.475693   -4.616008
     20          6           0        0.000000    1.225152    2.856571
     21          6           0        0.000000    0.000000    3.535168
     22          6           0        0.000000   -1.225152    2.856571
     23          1           0        0.000000    0.000000    4.617405
     24          6           0        0.000000   -2.474912    3.534351
     25          6           0        0.000000   -3.658867    2.847556
     26          6           0        0.000000   -3.691992    1.424042
     27          1           0        0.000000   -2.475693    4.616008
     28          1           0        0.000000   -4.597217    3.385569
     29          6           0        0.000000   -4.895022   -0.693256
     30          1           0        0.000000   -5.832963   -1.231614
     31          6           0        0.000000   -4.895022    0.693256
     32          1           0        0.000000   -5.832963    1.231614
     33          6           0        0.000000    2.474912   -3.534351
     34          6           0        0.000000    3.658867   -2.847556
     35          1           0        0.000000    4.597217   -3.385569
     36          6           0        0.000000    3.691992   -1.424042
     37          1           0        0.000000    2.475693   -4.616008
     38          6           0        0.000000    4.895022   -0.693256
     39          1           0        0.000000    5.832963   -1.231614
     40          6           0        0.000000    3.691992    1.424042
     41          6           0        0.000000    2.474912    3.534351
     42          6           0        0.000000    3.658867    2.847556
     43          1           0        0.000000    4.597217    3.385569
     44          6           0        0.000000    4.895022    0.693256
     45          1           0        0.000000    5.832963    1.231614
     46          1           0        0.000000    2.475693    4.616008
 ---------------------------------------------------------------------
                    Distance matrix (angstroms):
                    1          2          3          4          5
     1  C    0.000000
     2  C    1.408445   0.000000
     3  C    2.451095   1.421208   0.000000
     4  C    2.833790   2.457390   1.417091   0.000000
     5  C    2.455887   2.836047   2.457390   1.421208   0.000000
     6  C    1.427220   2.455887   2.833790   2.451095   1.408445
     7  C    3.749308   2.462903   1.421208   2.457390   3.756202
     8  C    4.254994   3.756202   2.457390   1.421208   2.462903
     9  C    5.105715   4.254994   2.833790   2.451095   3.749308
    10  C    4.902180   3.749308   2.451095   2.833790   4.254994
    11  C    6.504384   5.684860   4.263652   3.760683   4.923447
    12  C    7.072021   6.489252   5.102271   4.238240   5.094976
    13  C    6.504665   6.185721   4.911961   3.756377   4.268017
    14  C    5.124544   4.930219   3.769755   2.472855   2.846809
    15  C    4.905095   5.103977   4.243714   2.826623   2.449240
    16  C    3.774800   4.274599   3.769755   2.472855   1.438561
    17  H    5.867500   6.159778   5.325950   3.908859   3.428194
    18  H    8.153644   7.553005   6.155987   5.319855   6.151798
    19  H    7.257962   7.081840   5.871961   4.625723   4.895919
    20  C    2.468847   1.438561   2.472855   3.769755   4.274599
    21  C    3.737517   2.449240   2.826623   4.243714   5.103977
    22  C    4.255237   2.846809   2.472855   3.769755   4.930219
    23  H    4.609496   3.428194   3.908859   5.325950   6.159778
    24  C    5.676449   4.268017   3.756377   4.911961   6.185721
    25  C    6.471886   5.094976   4.238240   5.102271   6.489252
    26  C    6.184025   4.923447   3.760683   4.263652   5.684860
    27  H    6.285053   4.895919   4.625723   5.871961   7.081840
    28  H    7.537771   6.151798   5.319855   6.155987   7.553005
    29  C    7.479615   6.480060   5.091786   4.895046   6.169195
    30  H    8.509373   7.544967   6.147168   5.856369   7.066873
    31  C    7.346140   6.169195   4.895046   5.091786   6.480060
    32  H    8.300232   7.066873   5.856369   6.147168   7.544967
    33  C    4.248028   5.106095   4.911961   3.756377   2.454595
    34  C    3.760403   4.907903   5.102271   4.238240   2.817075
    35  H    4.627000   5.865397   6.155987   5.319855   3.898668
    36  C    2.471718   3.759201   4.263652   3.760683   2.460548
    37  H    5.329675   6.160980   5.871961   4.625723   3.431507
    38  C    2.819943   4.228386   5.091786   4.895046   3.734573
    39  H    3.901405   5.309848   6.147168   5.856369   4.605285
    40  C    1.429878   2.460548   3.760683   4.263652   3.759201
    41  C    2.820841   2.454595   3.756377   4.911961   5.106095
    42  C    2.452030   2.817075   4.238240   5.102271   4.907903
    43  H    3.427131   3.898668   5.319855   6.155987   5.865397
    44  C    2.444017   3.734573   4.895046   5.091786   4.228386
    45  H    3.421314   4.605285   5.856369   6.147168   5.309848
    46  H    3.902475   3.431507   4.625723   5.871961   6.160980
                    6          7          8          9         10
     6  C    0.000000
     7  C    4.254994   0.000000
     8  C    3.749308   2.836047   0.000000
     9  C    4.902180   2.455887   1.408445   0.000000
    10  C    5.105715   1.408445   2.455887   1.427220   0.000000
    11  C    6.184025   3.759201   2.460548   1.429878   2.471718
    12  C    6.471886   4.907903   2.817075   2.452030   3.760403
    13  C    5.676449   5.106095   2.454595   2.820841   4.248028
    14  C    4.255237   4.274599   1.438561   2.468847   3.774800
    15  C    3.737517   5.103977   2.449240   3.737517   4.905095
    16  C    2.468847   4.930219   2.846809   4.255237   5.124544
    17  H    4.609496   6.159778   3.428194   4.609496   5.867500
    18  H    7.537771   5.865397   3.898668   3.427131   4.627000
    19  H    6.285053   6.160980   3.431507   3.902475   5.329675
    20  C    3.774800   2.846809   4.930219   5.124544   4.255237
    21  C    4.905095   2.449240   5.103977   4.905095   3.737517
    22  C    5.124544   1.438561   4.274599   3.774800   2.468847
    23  H    5.867500   3.428194   6.159778   5.867500   4.609496
    24  C    6.504665   2.454595   5.106095   4.248028   2.820841
    25  C    7.072021   2.817075   4.907903   3.760403   2.452030
    26  C    6.504384   2.460548   3.759201   2.471718   1.429878
    27  H    7.257962   3.431507   6.160980   5.329675   3.902475
    28  H    8.153644   3.898668   5.865397   4.627000   3.427131
    29  C    7.346140   4.228386   3.734573   2.444017   2.819943
    30  H    8.300232   5.309848   4.605285   3.421314   3.901405
    31  C    7.479615   3.734573   4.228386   2.819943   2.444017
    32  H    8.509373   4.605285   5.309848   3.901405   3.421314
    33  C    2.820841   6.185721   4.268017   5.676449   6.504665
    34  C    2.452030   6.489252   5.094976   6.471886   7.072021
    35  H    3.427131   7.553005   6.151798   7.537771   8.153644
    36  C    1.429878   5.684860   4.923447   6.184025   6.504384
    37  H    3.902475   7.081840   4.895919   6.285053   7.257962
    38  C    2.444017   6.480060   6.169195   7.346140   7.479615
    39  H    3.421314   7.544967   7.066873   8.300232   8.509373
    40  C    2.471718   4.923447   5.684860   6.504384   6.184025
    41  C    4.248028   4.268017   6.185721   6.504665   5.676449
    42  C    3.760403   5.094976   6.489252   7.072021   6.471886
    43  H    4.627000   6.151798   7.553005   8.153644   7.537771
    44  C    2.819943   6.169195   6.480060   7.479615   7.346140
    45  H    3.901405   7.066873   7.544967   8.509373   8.300232
    46  H    5.329675   4.895919   7.081840   7.257962   6.285053
                   11         12         13         14         15
    11  C    0.000000
    12  C    1.423900   0.000000
    13  C    2.436121   1.368736   0.000000
    14  C    2.852619   2.433732   1.421719   0.000000
    15  C    4.252959   3.722918   2.474912   1.400533   0.000000
    16  C    5.121567   4.884028   3.761630   2.450305   1.400533
    17  H    4.881431   4.064440   2.701517   2.145119   1.082236
    18  H    2.160329   1.081646   2.127514   3.413306   4.599650
    19  H    3.415850   2.127751   1.081657   2.158580   2.701346
    20  C    6.519352   7.509375   7.384738   6.216428   6.508097
    21  C    6.182602   7.357070   7.490213   6.508097   7.070337
    22  C    4.940540   6.201615   6.511972   5.713142   6.508097
    23  H    7.080245   8.313420   8.519173   7.573725   8.152573
    24  C    5.105579   6.490800   7.068702   6.511972   7.490213
    25  C    4.271726   5.695112   6.490800   6.201615   7.357070
    26  C    2.848083   4.271726   5.105579   4.940540   6.182602
    27  H    6.161297   7.556764   8.150359   7.576495   8.518845
    28  H    4.894057   6.303360   7.238057   7.094726   8.308490
    29  C    1.407597   2.483765   3.732124   4.260032   5.660186
    30  H    2.149601   2.708866   4.071744   4.885939   6.271349
    31  C    2.435207   3.750391   4.871303   5.105802   6.468448
    32  H    3.411197   4.622372   5.830174   6.159965   7.532972
    33  C    6.517983   6.172110   4.949824   3.761630   2.474912
    34  C    7.487424   7.317735   6.172110   4.884028   3.722918
    35  H    8.518132   8.273596   7.073694   5.846351   4.599650
    36  C    7.383983   7.487424   6.517983   5.121567   4.252959
    37  H    6.944709   6.384375   5.067393   4.097789   2.701346
    38  C    8.618054   8.821000   7.898591   6.491261   5.660186
    39  H    9.526898   9.628401   8.621101   7.242753   6.271349
    40  C    7.914214   8.501863   7.913050   6.519352   6.182602
    41  C    7.913050   8.851666   8.629444   7.384738   7.490213
    42  C    8.501863   9.272731   8.851666   7.509375   7.357070
    43  H    9.583493  10.344795   9.894458   8.536059   8.308490
    44  C    8.844193   9.257774   8.496387   7.075154   6.468448
    45  H    9.888239  10.331237   9.577850   8.156607   7.532972
    46  H    8.632643   9.661139   9.536081   8.338806   8.518845
                   16         17         18         19         20
    16  C    0.000000
    17  H    2.145119   0.000000
    18  H    5.846351   4.759393   0.000000
    19  H    4.097789   2.475693   2.452518   0.000000
    20  C    5.713142   7.573725   8.536059   8.338806   0.000000
    21  C    6.508097   8.152573   8.308490   8.518845   1.400533
    22  C    6.216428   7.573725   7.094726   7.576495   2.450305
    23  H    7.573725   9.234809   9.229409   9.559548   2.145119
    24  C    7.384738   8.519173   7.238057   8.150359   3.761630
    25  C    7.509375   8.313420   6.303360   7.556764   4.884028
    26  C    6.519352   7.080245   4.894057   6.161297   5.121567
    27  H    8.338806   9.559548   8.278049   9.232016   4.097789
    28  H    8.536059   9.229409   6.771138   8.278049   5.846351
    29  C    6.491261   6.273769   2.708734   4.608811   7.075154
    30  H    7.242753   6.744407   2.483262   4.767114   8.156607
    31  C    7.075154   7.222490   4.089683   5.834504   6.491261
    32  H    8.156607   8.260416   4.779692   6.742844   7.242753
    33  C    1.421719   2.701517   7.073694   5.067393   6.511972
    34  C    2.433732   4.064440   8.273596   6.384375   6.201615
    35  H    3.413306   4.759393   9.194434   7.179139   7.094726
    36  C    2.852619   4.881431   8.518132   6.944709   4.940540
    37  H    2.158580   2.475693   7.179139   4.951385   7.576495
    38  C    4.260032   6.273769   9.866669   8.349576   5.105802
    39  H    4.885939   6.744407  10.650266   8.971503   6.159965
    40  C    4.940540   7.080245   9.583493   8.632643   2.852619
    41  C    6.511972   8.519173   9.894458   9.536081   1.421719
    42  C    6.201615   8.313420  10.344795   9.661139   2.433732
    43  H    7.094726   9.229409  11.418666  10.679480   3.413306
    44  C    5.105802   7.222490  10.331477   9.083816   4.260032
    45  H    6.159965   8.260416  11.406447  10.160140   4.885939
    46  H    7.576495   9.559548  10.679480  10.475988   2.158580
                   21         22         23         24         25
    21  C    0.000000
    22  C    1.400533   0.000000
    23  H    1.082236   2.145119   0.000000
    24  C    2.474912   1.421719   2.701517   0.000000
    25  C    3.722918   2.433732   4.064440   1.368736   0.000000
    26  C    4.252959   2.852619   4.881431   2.436121   1.423900
    27  H    2.701346   2.158580   2.475693   1.081657   2.127751
    28  H    4.599650   3.413306   4.759393   2.127514   1.081646
    29  C    6.468448   5.105802   7.222490   4.871303   3.750391
    30  H    7.532972   6.159965   8.260416   5.830174   4.622372
    31  C    5.660186   4.260032   6.273769   3.732124   2.483765
    32  H    6.271349   4.885939   6.744407   4.071744   2.708866
    33  C    7.490213   7.384738   8.519173   8.629444   8.851666
    34  C    7.357070   7.509375   8.313420   8.851666   9.272731
    35  H    8.308490   8.536059   9.229409   9.894458  10.344795
    36  C    6.182602   6.519352   7.080245   7.913050   8.501863
    37  H    8.518845   8.338806   9.559548   9.536081   9.661139
    38  C    6.468448   7.075154   7.222490   8.496387   9.257774
    39  H    7.532972   8.156607   8.260416   9.577850  10.331237
    40  C    4.252959   5.121567   4.881431   6.517983   7.487424
    41  C    2.474912   3.761630   2.701517   4.949824   6.172110
    42  C    3.722918   4.884028   4.064440   6.172110   7.317735
    43  H    4.599650   5.846351   4.759393   7.073694   8.273596
    44  C    5.660186   6.491261   6.273769   7.898591   8.821000
    45  H    6.271349   7.242753   6.744407   8.621101   9.628401
    46  H    2.701346   4.097789   2.475693   5.067393   6.384375
                   26         27         28         29         30
    26  C    0.000000
    27  H    3.415850   0.000000
    28  H    2.160329   2.452518   0.000000
    29  C    2.435207   5.834504   4.089683   0.000000
    30  H    3.411197   6.742844   4.779692   1.081463   0.000000
    31  C    1.407597   4.608811   2.708734   1.386512   2.141228
    32  H    2.149601   4.767114   2.483262   2.141228   2.463229
    33  C    7.913050   9.536081   9.894458   7.898591   8.621101
    34  C    8.501863   9.661139  10.344795   8.821000   9.628401
    35  H    9.583493  10.679480  11.418666   9.866669  10.650266
    36  C    7.914214   8.632643   9.583493   8.618054   9.526898
    37  H    8.632643  10.475988  10.679480   8.349576   8.971503
    38  C    8.844193   9.083816  10.331477   9.790044  10.741484
    39  H    9.888239  10.160140  11.406447  10.741484  11.665925
    40  C    7.383983   6.944709   8.518132   8.844193   9.888239
    41  C    6.517983   5.067393   7.073694   8.496387   9.577850
    42  C    7.487424   6.384375   8.273596   9.257774  10.331237
    43  H    8.518132   7.179139   9.194434  10.331477  11.406447
    44  C    8.618054   8.349576   9.866669   9.887739  10.899302
    45  H    9.526898   8.971503  10.650266  10.899302  11.923142
    46  H    6.944709   4.951385   7.179139   9.083816  10.160140
                   31         32         33         34         35
    31  C    0.000000
    32  H    1.081463   0.000000
    33  C    8.496387   9.577850   0.000000
    34  C    9.257774  10.331237   1.368736   0.000000
    35  H   10.331477  11.406447   2.127514   1.081646   0.000000
    36  C    8.844193   9.888239   2.436121   1.423900   2.160329
    37  H    9.083816  10.160140   1.081657   2.127751   2.452518
    38  C    9.887739  10.899302   3.732124   2.483765   2.708734
    39  H   10.899302  11.923142   4.071744   2.708866   2.483262
    40  C    8.618054   9.526898   5.105579   4.271726   4.894057
    41  C    7.898591   8.621101   7.068702   6.490800   7.238057
    42  C    8.821000   9.628401   6.490800   5.695112   6.303360
    43  H    9.866669  10.650266   7.238057   6.303360   6.771138
    44  C    9.790044  10.741484   4.871303   3.750391   4.089683
    45  H   10.741484  11.665925   5.830174   4.622372   4.779692
    46  H    8.349576   8.971503   8.150359   7.556764   8.278049
                   36         37         38         39         40
    36  C    0.000000
    37  H    3.415850   0.000000
    38  C    1.407597   4.608811   0.000000
    39  H    2.149601   4.767114   1.081463   0.000000
    40  C    2.848083   6.161297   2.435207   3.411197   0.000000
    41  C    5.105579   8.150359   4.871303   5.830174   2.436121
    42  C    4.271726   7.556764   3.750391   4.622372   1.423900
    43  H    4.894057   8.278049   4.089683   4.779692   2.160329
    44  C    2.435207   5.834504   1.386512   2.141228   1.407597
    45  H    3.411197   6.742844   2.141228   2.463229   2.149601
    46  H    6.161297   9.232016   5.834504   6.742844   3.415850
                   41         42         43         44         45
    41  C    0.000000
    42  C    1.368736   0.000000
    43  H    2.127514   1.081646   0.000000
    44  C    3.732124   2.483765   2.708734   0.000000
    45  H    4.071744   2.708866   2.483262   1.081463   0.000000
    46  H    1.081657   2.127751   2.452518   4.608811   4.767114
                   46
    46  H    0.000000
 Stoichiometry    C32H14
 Framework group  D2H[C2"(HCC.CCH),SG(C28H12)]
 Deg. of freedom    23
 Full point group                 D2H     NOp   8
 Largest Abelian subgroup         D2H     NOp   8
 Largest concise Abelian subgroup D2      NOp   4
                         Standard orientation:                         
 ---------------------------------------------------------------------
 Center     Atomic      Atomic             Coordinates (Angstroms)
 Number     Number       Type             X           Y           Z
 ---------------------------------------------------------------------
      1          6           0        0.000000    2.451090    0.713610
      2          6           0        0.000000    1.231452    1.418023
      3          6           0        0.000000    0.000000    0.708545
      4          6           0        0.000000    0.000000   -0.708545
      5          6           0        0.000000    1.231452   -1.418023
      6          6           0        0.000000    2.451090   -0.713610
      7          6           0       -0.000000   -1.231452    1.418023
      8          6           0       -0.000000   -1.231452   -1.418023
      9          6           0       -0.000000   -2.451090   -0.713610
     10          6           0       -0.000000   -2.451090    0.713610
     11          6           0        0.000000   -3.691992   -1.424042
     12          6           0        0.000000   -3.658867   -2.847556
     13          6           0        0.000000   -2.474912   -3.534351
     14          6           0        0.000000   -1.225152   -2.856571
     15          6           0        0.000000    0.000000   -3.535168
     16          6           0        0.000000    1.225152   -2.856571
     17          1           0        0.000000    0.000000   -4.617405
     18          1           0        0.000000   -4.597217   -3.385569
     19          1           0        0.000000   -2.475693   -4.616008
     20          6           0        0.000000    1.225152    2.856571
     21          6           0       -0.000000    0.000000    3.535168
     22          6           0       -0.000000   -1.225152    2.856571
     23          1           0       -0.000000    0.000000    4.617405
     24          6           0       -0.000000   -2.474912    3.534351
     25          6           0       -0.000000   -3.658867    2.847556
     26          6           0       -0.000000   -3.691992    1.424042
     27          1           0       -0.000000   -2.475693    4.616008
     28          1           0       -0.000000   -4.597217    3.385569
     29          6           0        0.000000   -4.895022   -0.693256
     30          1           0        0.000000   -5.832963   -1.231614
     31          6           0       -0.000000   -4.895022    0.693256
     32          1           0       -0.000000   -5.832963    1.231614
     33          6           0        0.000000    2.474912   -3.534351
     34          6           0        0.000000    3.658867   -2.847556
     35          1           0        0.000000    4.597217   -3.385569
     36          6           0        0.000000    3.691992   -1.424042
     37          1           0        0.000000    2.475693   -4.616008
     38          6           0        0.000000    4.895022   -0.693256
     39          1           0        0.000000    5.832963   -1.231614
     40          6           0        0.000000    3.691992    1.424042
     41          6           0        0.000000    2.474912    3.534351
     42          6           0        0.000000    3.658867    2.847556
     43          1           0        0.000000    4.597217    3.385569
     44          6           0        0.000000    4.895022    0.693256
     45          1           0        0.000000    5.832963    1.231614
     46          1           0        0.000000    2.475693    4.616008
 ---------------------------------------------------------------------
 Rotational constants (GHZ):           0.2389454           0.1477155           0.0912840
 Standard basis: 6-311++G(2d,2p) (5D, 7F)
 There are   207 symmetry adapted cartesian basis functions of AG  symmetry.
 There are    66 symmetry adapted cartesian basis functions of B1G symmetry.
 There are    76 symmetry adapted cartesian basis functions of B2G symmetry.
 There are   185 symmetry adapted cartesian basis functions of B3G symmetry.
 There are    66 symmetry adapted cartesian basis functions of AU  symmetry.
 There are   207 symmetry adapted cartesian basis functions of B1U symmetry.
 There are   185 symmetry adapted cartesian basis functions of B2U symmetry.
 There are    76 symmetry adapted cartesian basis functions of B3U symmetry.
 There are   189 symmetry adapted basis functions of AG  symmetry.
 There are    66 symmetry adapted basis functions of B1G symmetry.
 There are    76 symmetry adapted basis functions of B2G symmetry.
 There are   171 symmetry adapted basis functions of B3G symmetry.
 There are    66 symmetry adapted basis functions of AU  symmetry.
 There are   189 symmetry adapted basis functions of B1U symmetry.
 There are   171 symmetry adapted basis functions of B2U symmetry.
 There are    76 symmetry adapted basis functions of B3U symmetry.
  1004 basis functions,  1512 primitive gaussians,  1068 cartesian basis functions
   103 alpha electrons      103 beta electrons
       nuclear repulsion energy      2860.1314505121 Hartrees.
 NAtoms=   46 NActive=   46 NUniq=   13 SFac= 4.00D+00 NAtFMM=   60 NAOKFM=F Big=F
 Integral buffers will be    131072 words long.
 Regular integral format.
 Two-electron integral symmetry is turned on.
 Nuclear repulsion after empirical dispersion term =     2859.9869357629 Hartrees.
 One-electron integrals computed using PRISM.
 NBasis=  1004 RedAO= T EigKep=  1.05D-06  NBF=   189    66    76   171    66   189   171    76
 NBsUse=   973 1.00D-06 EigRej=  8.77D-07 NBFU=   183    66    76   162    66   179   165    76
 ExpMin= 3.60D-02 ExpMax= 4.56D+03 ExpMxC= 6.82D+02 IAcc=3 IRadAn=         5 AccDes= 0.00D+00
 Harris functional with IExCor=  402 and IRadAn=       5 diagonalized for initial guess.
 HarFok:  IExCor=  402 AccDes= 0.00D+00 IRadAn=         5 IDoV= 1 UseB2=F ITyADJ=14
 ICtDFT=  3500011 ScaDFX=  1.000000  1.000000  1.000000  1.000000
 FoFCou: FMM=F IPFlag=           0 FMFlag=      100000 FMFlg1=           0
         NFxFlg=           0 DoJE=T BraDBF=F KetDBF=T FulRan=T
         wScrn=  0.000000 ICntrl=       500 IOpCl=  0 I1Cent=   200000004 NGrid=           0
         NMat0=    1 NMatS0=      1 NMatT0=    0 NMatD0=    1 NMtDS0=    0 NMtDT0=    0
 Petite list used in FoFCou.
 Initial guess orbital symmetries:
       Occupied  (B1U) (AG) (B3G) (B2U) (B1U) (B3G) (AG) (B2U)
                 (AG) (B2U) (B3G) (B1U) (B1U) (AG) (B3G) (B2U)
                 (B1U) (AG) (B3G) (B1U) (AG) (B2U) (AG) (B1U) (B2U)
                 (AG) (B3G) (B1U) (B2U) (B3G) (AG) (B1U) (AG) (B2U)
                 (B1U) (AG) (B3G) (AG) (B2U) (B1U) (B2U) (AG) (B1U)
                 (B3G) (AG) (B3G) (B2U) (B1U) (AG) (B3G) (B2U)
                 (B1U) (AG) (B2U) (B1U) (B3G) (AG) (B1U) (AG) (B2U)
                 (B3G) (B2U) (AG) (B1U) (B3G) (B2U) (B1U) (AG)
                 (B2U) (B3G) (AG) (B1U) (B2U) (AG) (B3G) (B2U)
                 (AG) (B3G) (B3U) (B1U) (AG) (B2U) (B1G) (B3G)
                 (B2G) (B1U) (B1U) (B2U) (B3U) (AU) (B3G) (AG)
                 (B3U) (B1G) (B2G) (B1G) (B2G) (AU) (B3U) (B3U)
                 (AU) (B1G) (B2G)
       Virtual   (B3U) (AU) (B1G) (B2G) (B2G) (B1G) (B3U) (AU)
                 (B3U) (AU) (B2G) (AG) (B2U) (B1U) (B1G) (B3G)
                 (B2G) (AG) (AG) (B2U) (B1U) (B2U) (AG) (B3G) (B3U)
                 (B1U) (B1U) (B3U) (B2U) (B1G) (B2G) (AG) (AG)
                 (AU) (B3G) (B2U) (B3U) (B3G) (B1U) (AG) (AU) (AG)
                 (B1U) (B2U) (B3U) (AG) (B2U) (B2G) (B3G) (B1U)
                 (B1G) (AG) (B2U) (B1G) (B3G) (B1U) (B1U) (AG)
                 (B2G) (B2U) (B2U) (B1U) (B3G) (AU) (AG) (B3G)
                 (B1U) (AG) (B2U) (B3U) (B1U) (B2G) (B2U) (AG)
                 (B3G) (B3U) (AU) (AG) (B1U) (B3G) (B1U) (B3G)
                 (B1G) (B2U) (B2G) (AG) (AG) (B2U) (B1U) (B3U)
                 (AG) (B3G) (B2U) (B2U) (B2G) (B1U) (B3G) (B1G)
                 (AU) (AG) (B3U) (B1U) (B2U) (B3G) (AG) (B1G) (AG)
                 (B2U) (B3G) (B2G) (B2U) (B1U) (AU) (B1U) (AG)
                 (B3G) (B2U) (B2G) (B1U) (AG) (B2U) (AG) (B1U)
                 (AG) (B3G) (B3U) (B2U) (B3G) (B1U) (B2U) (B3G)
                 (AG) (AU) (B2G) (B1U) (B1U) (B3U) (B3G) (B1G)
                 (AG) (B1U) (AG) (B2U) (B3G) (B1U) (B2U) (B1U)
                 (AG) (B3G) (B2U) (AG) (B3G) (B3G) (B3U) (B3G)
                 (B2U) (B1U) (B2G) (AG) (B1G) (B3G) (B1U) (AU)
                 (AG) (B2U) (B1U) (B1U) (B2U) (AG) (B3G) (B1U)
                 (B2U) (AG) (B3G) (B2U) (AG) (B3U) (B1U) (B3U)
                 (B1G) (B2G) (AU) (AG) (B3G) (B1U) (B1G) (B3U)
                 (B2G) (B3U) (AU) (AG) (B1G) (B2U) (B2U) (AG) (B1G)
                 (B2U) (B3U) (B1U) (B2U) (B2G) (B3G) (B3G) (AG)
                 (B1U) (B3G) (B2G) (AG) (B3G) (B1U) (B1U) (B2U)
                 (AG) (B3U) (B3G) (AG) (AU) (B2U) (B1G) (B1U) (AG)
                 (B2U) (AG) (B3G) (B1U) (B2U) (AU) (B2G) (B3U)
                 (B1G) (B3U) (AU) (B2G) (B1G) (B2G) (B3U) (B1G)
                 (AG) (B2G) (AU) (AG) (B3G) (B2U) (B1U) (B1G) (B1U)
                 (B3G) (B3U) (B1U) (B2U) (AG) (B3U) (B2U) (B1G)
                 (AU) (B1U) (AG) (B3U) (B3G) (B2G) (B3U) (AU) (AU)
                 (B1U) (B2G) (B3U) (AG) (B1G) (B3G) (B2G) (B1U)
                 (B2U) (AG) (B3G) (AG) (AU) (B1G) (B2U) (B1U) (B2G)
                 (AU) (AG) (B1U) (B3G) (B2U) (B2G) (B1G) (B2U)
                 (AG) (B1U) (B2U) (B3G) (B1U) (AG) (B3G) (B2U)
                 (B3U) (AG) (AU) (B1U) (B3G) (AG) (B3G) (B2U) (B1U)
                 (B2U) (AG) (B3G) (B1U) (B2U) (AG) (B3G) (B3G)
                 (B1U) (B1U) (B1G) (B3U) (B2G) (B3U) (B2U) (AG)
                 (AU) (B1G) (B3U) (B2G) (AG) (B3G) (B1U) (B2U)
                 (B1G) (B1U) (B3U) (B3G) (B2U) (AG) (B2G) (AU)
                 (AG) (B2U) (AU) (B2G) (B1U) (B2G) (B1G) (B3U)
                 (B1G) (B3G) (AG) (AU) (B3G) (B2U) (B3U) (AG) (B1U)
                 (AU) (B2U) (AG) (B2G) (B3G) (B1G) (B2U) (AG) (B1U)
                 (B2U) (AG) (B3U) (B2G) (AU) (B1U) (B3G) (B3U)
                 (B2G) (AG) (B2U) (B3G) (B2U) (B1U) (AG) (B3G)
                 (B2U) (B1U) (B3G) (B2U) (AG) (B1G) (B1U) (B2U)
                 (AU) (B1U) (B2G) (AG) (B3G) (B1G) (B3U) (AG) (B2G)
                 (AU) (B1G) (B2U) (AG) (B1U) (B2U) (B1U) (B3G)
                 (B3G) (B2U) (AG) (B1U) (AG) (B3G) (B3U) (B2U)
                 (AG) (B2G) (B1U) (B1U) (AU) (AG) (B3G) (B3U) (B3G)
                 (B1U) (AU) (B1G) (B1U) (AG) (B2U) (B3G) (B2G)
                 (B1U) (B2U) (B3G) (B2U) (AG) (B2U) (B3G) (B2G)
                 (AU) (AG) (B1U) (B2U) (B1U) (B3U) (B3G) (AG) (B3G)
                 (AG) (B2U) (B1U) (B3G) (B1U) (B2U) (B1G) (AG)
                 (B1U) (B3G) (B2G) (AG) (B2U) (B3G) (B1U) (B2U)
                 (AG) (B1U) (AU) (B3G) (B3U) (AG) (B1U) (B2U) (B3G)
                 (B1U) (AG) (B3G) (B2U) (B1U) (B3G) (AG) (B1U)
                 (B2U) (B3G) (B1G) (B1U) (AU) (B2G) (AG) (B2U)
                 (B3G) (AG) (B1U) (B2U) (B3G) (B3G) (AG) (B1U)
                 (B1U) (B2U) (B3G) (B1U) (AG) (B3G) (B1U) (B2G)
                 (AU) (B2U) (B3G) (AG) (B1U) (B2U) (B1U) (AG) (B3G)
                 (B3G) (B2U) (B2U) (B1U) (AG) (B3G) (B2U) (AG)
                 (B1U) (B3U) (B1G) (B3G) (B2G) (AU) (B3U) (AG)
                 (B1U) (B1G) (B3U) (B2G) (B3U) (B1G) (AU) (B2G)
                 (B1U) (B1G) (B3U) (AG) (B2G) (B2U) (B1U) (B3U)
                 (B1G) (B3G) (AU) (AG) (B2U) (B3G) (AU) (B2G) (B3U)
                 (B1G) (B2U) (AG) (B1G) (AG) (B3U) (B3G) (AG) (B1U)
                 (B2U) (AG) (B2U) (B1U) (B3G) (B2U) (AG) (AU) (B1U)
                 (B2G) (B3U) (B1G) (B3G) (AU) (B3U) (B2G) (B1G)
                 (B1U) (AU) (B2U) (B2G) (B3U) (B2U) (AG) (B2G)
                 (AG) (AU) (B2G) (B3G) (B2G) (B2U) (AG) (B3U) (AU)
                 (B3G) (B1U) (B1G) (B1U) (B1G) (B3U) (AG) (AG)
                 (B2U) (B3G) (B2U) (B1G) (B1U) (B3U) (AU) (AG)
                 (B2G) (B3G) (B2U) (B1U) (B3G) (B3U) (B2U) (AG)
                 (B1G) (B1U) (AU) (B3G) (B1U) (AG) (B1G) (B3G)
                 (B2G) (B3U) (AG) (B1G) (B2U) (B2U) (AU) (AG) (B2G)
                 (B1U) (B3U) (AU) (B2U) (B1U) (AG) (B3G) (B1G)
                 (AU) (B1U) (B2U) (B2G) (B3U) (B3G) (AG) (B2G)
                 (AG) (B3U) (B1U) (B1U) (B1G) (B3G) (B2U) (B3U)
                 (B2G) (AU) (AG) (B1G) (AU) (B1U) (AG) (B3G) (B3U)
                 (B1G) (B2U) (B3U) (B2G) (B2U) (B2G) (AU) (B1G)
                 (AG) (B1U) (B3G) (B2G) (B2U) (B3U) (B3G) (B1G)
                 (AU) (AG) (B1U) (AU) (AG) (B2G) (B2U) (B3G) (AU)
                 (B2U) (B2G) (B1U) (B3U) (AG) (B3G) (B1U) (B2G)
                 (B3G) (B1G) (B2U) (AU) (B2U) (AG) (B3U) (B1U)
                 (AG) (B1U) (B3G) (B3G) (B1G) (B1U) (AG) (B2G)
                 (AG) (AU) (B2U) (B1U) (B3G) (AG) (B3G) (B2U) (B1G)
                 (B3U) (AU) (B2G) (B3U) (B1G) (B2U) (B1U) (AG)
                 (B3U) (B2G) (AU) (B2G) (B2U) (B1G) (AU) (B3U)
                 (AG) (B2G) (B1U) (B3G) (B3G) (B2U) (B1U) (AU)
                 (B2G) (AG) (B1U) (B2U) (AG) (B3G) (B2U) (B1U)
                 (B2U) (B3G) (B1U) (AG) (B1U) (B3G) (B1U) (AG)
                 (B2U) (B3G) (B3G) (B1U) (B2U) (AG) (AG) (B3G)
                 (B2U) (B1U) (B3G) (B1U) (AG) (B3G) (B2U) (B2U)
                 (B1U) (AG) (B1U) (B3G) (B2U) (AG) (B3G) (B1U)
                 (B3G) (AG) (AG) (B2U) (B1U) (B3G) (B1U) (B2U)
                 (B3G) (B3G) (B2U) (B1U) (AG) (B2U) (B1U) (AG)
                 (B3G) (B1U) (B3G) (AG) (B2U) (B1U) (AG) (B2U)
                 (AG) (B1U) (B3G) (AG) (B1U) (B3G) (B2U) (B3G)
                 (B1U) (AG) (B1U) (B2U) (B3G) (B1U) (AG) (B3G)
                 (B2U) (B1U) (B2U) (B3G) (B3G) (B1U) (AG) (B2U)
                 (B1U) (B3G) (B2U) (AG) (AG) (B1U) (B2U) (B1U)
                 (AG) (B3G) (B1U) (AG) (B3G) (B2U) (B2U) (B1U)
                 (B3G) (AG) (B3G) (B1U) (AG) (B2U) (AG) (B1U) (B3G)
                 (B2U) (B1U) (B1U) (AG) (B3G)
 The electronic state of the initial guess is 1-AG.
 Requested convergence on RMS density matrix=1.00D-08 within 128 cycles.
 Requested convergence on MAX density matrix=1.00D-06.
 Requested convergence on             energy=1.00D-06.
 No special actions if energy rises.
 SCF Done:  E(RB3LYP) =  -1228.45992078     A.U. after   13 cycles
            NFock= 13  Conv=0.33D-08     -V/T= 2.0045
 DoSCS=F DFT=T ScalE2(SS,OS)=  1.000000  1.000000
 ExpMin= 3.60D-02 ExpMax= 4.56D+03 ExpMxC= 6.82D+02 IAcc=3 IRadAn=         5 AccDes= 0.00D+00
 HarFok:  IExCor=  205 AccDes= 0.00D+00 IRadAn=         5 IDoV=-2 UseB2=F ITyADJ=14
 ICtDFT= 12500011 ScaDFX=  1.000000  1.000000  1.000000  1.000000
 GSVD:  LWork=       -1280 too small for GESVD, short by        5600 words or        5600 for optimal perf.
 Range of M.O.s used for correlation:    33   973
 NBasis=  1004 NAE=   103 NBE=   103 NFC=    32 NFV=     0
 NROrb=    941 NOA=    71 NOB=    71 NVA=   870 NVB=   870
 **** Warning!!: The largest alpha MO coefficient is  0.13336538D+03
 Orbital symmetries:
       Occupied  (AG) (B1U) (B3G) (B2U) (AG) (B1U) (B2U) (AG) (B3G)
                 (B1U) (B2U) (AG) (B3G) (B1U) (B2U) (AG) (B3G)
                 (B1U) (B1U) (B3G) (AG) (B2U) (AG) (B2U) (B1U)
                 (AG) (B3G) (B1U) (B1U) (AG) (B3G) (B2U) (AG) (B2U)
                 (B1U) (AG) (B3G) (AG) (B2U) (B1U) (B2U) (AG) (B1U)
                 (B3G) (AG) (B3G) (B2U) (B1U) (AG) (B1U) (B2U)
                 (B3G) (AG) (B2U) (B1U) (B3G) (AG) (B1U) (B3G)
                 (AG) (B2U) (B2U) (B1U) (AG) (B3G) (B2U) (B1U)
                 (AG) (AG) (B2U) (B3U) (B1U) (B3G) (B2U) (B3G)
                 (AG) (B2U) (B1G) (AG) (B2G) (B3G) (B1U) (AG) (B3G)
                 (B1U) (B3U) (AU) (B2U) (B1U) (B2U) (B3U) (B3G)
                 (B1G) (AG) (B2G) (B1G) (B2G) (AU) (B3U) (B3U)
                 (AU) (B1G) (B2G)
       Virtual   (B3U) (AU) (B1G) (B2G) (B3U) (B1G) (B2G) (AG)
                 (B2U) (B1U) (B3G) (AG) (B2U) (B1U) (AU) (AG) (B3U)
                 (AG) (B3G) (B2G) (B2U) (AU) (B1U) (B1G) (B3U)
                 (B2U) (B1U) (B2G) (B3U) (AG) (B3G) (AG) (B3G)
                 (AU) (B3U) (B1G) (AG) (B2U) (B1U) (B2G) (AG) (B2U)
                 (B3G) (B1U) (B1G) (AG) (B1U) (AU) (B2U) (B1U)
                 (B2U) (B2G) (AG) (B3G) (B3U) (B1G) (B2U) (B2G)
                 (B2U) (B3G) (B1U) (AG) (B3U) (AG) (AU) (B1U) (B3G)
                 (B2G) (B1G) (AG) (B3G) (B3U) (B1U) (AG) (B2U)
                 (B1U) (B3U) (B2G) (B3G) (AU) (B1G) (B3U) (AG)
                 (B2U) (B1U) (AG) (B2U) (AU) (B3G) (AG) (B2U) (B1G)
                 (AG) (B1U) (B2G) (B1U) (B2U) (AU) (B1U) (B3G)
                 (B2U) (B2G) (B1U) (AG) (B2U) (B1U) (AG) (B3G)
                 (AG) (B3G) (B2U) (B3U) (B2U) (B2G) (B3G) (AU)
                 (AG) (B2U) (AG) (B1U) (AG) (B3G) (B1U) (B3G) (B2G)
                 (B1U) (AG) (B3U) (B2U) (B1U) (B1G) (B3G) (B3G)
                 (B2U) (B1U) (AG) (B1U) (AG) (B2U) (B3G) (AG) (B2U)
                 (B1U) (B3G) (B2U) (AG) (B3G) (B1U) (B2G) (AU)
                 (B2U) (AG) (B1U) (B3G) (B2U) (AG) (B3G) (B1U)
                 (B2U) (B1U) (AG) (B3U) (AG) (B3G) (B1G) (B2U)
                 (B1U) (B1U) (B3G) (AG) (B3G) (B2U) (B3U) (B3G)
                 (B1G) (B2G) (B2U) (AG) (AU) (B3U) (B1U) (AG) (B1U)
                 (AG) (B1G) (B3U) (B2U) (B3U) (B1G) (B2G) (AU)
                 (B3G) (AG) (B1U) (B2U) (B1G) (B3G) (B2G) (B3U)
                 (B2U) (B1U) (B2G) (B1U) (B2U) (AG) (AG) (B3G)
                 (B2U) (AG) (B3G) (B1U) (AG) (B3U) (B3G) (AU) (B1G)
                 (B1U) (B2U) (B2U) (AG) (AU) (B3G) (B2G) (AG) (B1U)
                 (B2U) (B3U) (AU) (B3G) (B1U) (B3U) (B2G) (B1G)
                 (B1G) (B2G) (B3U) (B1G) (B2G) (AG) (B2U) (AU)
                 (B3U) (AG) (B1U) (B2U) (AG) (B1G) (B1U) (B3G)
                 (B3U) (AU) (AG) (B1G) (B3U) (B2G) (B2U) (AU) (B3G)
                 (B1U) (B1U) (AU) (B2G) (B3U) (B3G) (B1U) (B3U)
                 (B1G) (AG) (B2G) (B3G) (B2U) (B3G) (B1U) (AG)
                 (AU) (B1U) (B2U) (B2G) (B2U) (AG) (B1G) (AU) (AG)
                 (B1U) (B1G) (AG) (B2G) (B3G) (B1U) (B3G) (B2U)
                 (AG) (B2U) (B1U) (B3G) (B2U) (B3G) (AG) (B1U)
                 (B2U) (B3U) (B3G) (AG) (B1U) (AU) (B3G) (AG) (B2U)
                 (B2U) (B1U) (B3G) (AG) (B1U) (B3G) (B3U) (B2G)
                 (B1U) (B1G) (B3U) (B2U) (AU) (B1G) (B3U) (B2G)
                 (AG) (B3G) (AG) (B1U) (B2U) (B1G) (B3U) (B1U)
                 (B2G) (B3G) (B2U) (AG) (AU) (B2U) (AG) (AU) (B2G)
                 (B1G) (B3U) (B1U) (B2G) (B3G) (AG) (AU) (B1G)
                 (B2U) (AG) (B3G) (B3U) (AU) (B1U) (B2U) (B3G)
                 (AG) (AG) (B1U) (B2U) (B2G) (AG) (B1G) (B1U) (B2U)
                 (B2G) (B3U) (AU) (B2G) (B2U) (B3G) (B3G) (AG)
                 (B3U) (B2U) (B3G) (B1U) (B1U) (B3G) (B1U) (AG)
                 (B2U) (B2U) (B1U) (AG) (B1G) (B3G) (B2U) (AG)
                 (AU) (B2G) (B3U) (AG) (B2G) (B1G) (B1U) (AG) (B2U)
                 (B1G) (AU) (B2U) (B3G) (B3G) (B1U) (AG) (B2U)
                 (AG) (B3G) (B1U) (B2U) (AG) (B3U) (B2G) (B1U)
                 (B1U) (B3G) (AU) (AG) (B3G) (B1U) (AG) (B3U) (B1U)
                 (B2U) (B1G) (AU) (B3G) (B1U) (B2U) (B3G) (B2G)
                 (B2U) (AG) (B2U) (AU) (B1U) (B2G) (B3G) (B3G)
                 (AG) (AG) (B3U) (B2U) (B1U) (B3G) (B2U) (AG) (B3G)
                 (B1U) (B1G) (B2G) (B1U) (B2U) (AG) (B3G) (B1U)
                 (AG) (B1U) (B3G) (B2U) (AU) (B3G) (B1U) (B2U)
                 (AG) (B3U) (B1U) (B3G) (AG) (B2U) (B3G) (B1U)
                 (AG) (B1U) (B2U) (B3G) (AG) (B1U) (B3G) (B2U)
                 (B1G) (B1U) (AU) (B2G) (AG) (B3G) (B2U) (AG) (B1U)
                 (B3G) (B1U) (B2U) (AG) (B1U) (B3G) (B2U) (B1U)
                 (B3G) (B3G) (B2G) (AG) (AU) (B1U) (B2U) (B3G)
                 (B1U) (AG) (B1U) (B3G) (B2U) (AG) (B2U) (B3G)
                 (B1U) (B2U) (AG) (B3G) (B2U) (AG) (B1U) (B3G)
                 (B3U) (B1G) (AG) (B1U) (B2G) (AU) (B3U) (B1G)
                 (B3U) (B2G) (B3U) (B1G) (B1U) (AU) (B2G) (AG)
                 (B2U) (B1G) (B3U) (B1U) (B3G) (AG) (B2G) (B2U)
                 (B3G) (B3U) (B1G) (AU) (AU) (B2G) (B3U) (B1G)
                 (B2U) (AG) (B1G) (B3U) (AG) (B1U) (AG) (B2U) (AG)
                 (B3G) (B1U) (B2U) (B3G) (B2U) (B3U) (B1G) (B1U)
                 (AG) (AU) (B3G) (B2G) (B1U) (AU) (B2U) (B3U) (B2G)
                 (B1G) (AU) (AG) (B2G) (B3U) (AG) (B2G) (AU) (B2G)
                 (B2U) (B3G) (B2G) (B3U) (B2U) (AG) (B3G) (B1U)
                 (AU) (B1G) (B1U) (B1G) (B3U) (AG) (B3G) (B1G)
                 (B1U) (B2U) (AG) (B3U) (B2U) (AU) (B2G) (AG) (B3G)
                 (B2U) (B1U) (B3U) (B3G) (B1G) (AU) (AG) (B2U)
                 (B1U) (B3G) (B1U) (B2G) (B1G) (B1G) (AG) (B3U)
                 (B3G) (B2U) (AU) (AG) (B3U) (B2G) (B2U) (AU) (B1U)
                 (AG) (B1U) (B2U) (B1G) (AU) (B2G) (B3U) (AG) (B3G)
                 (B2G) (B1U) (AG) (B2U) (B3G) (B3U) (AG) (B1U)
                 (B1G) (B1U) (B3G) (B2G) (B3U) (AU) (B1G) (AU)
                 (AG) (B2U) (B3U) (B1G) (B3U) (B1U) (B3G) (AG)
                 (B2U) (B2G) (B2G) (AU) (B2U) (B1G) (AG) (B2G)
                 (B3U) (B1U) (B1G) (B3G) (AU) (AU) (B2U) (AG) (B3G)
                 (B2G) (B1U) (B2G) (AG) (B2U) (AU) (B3G) (B2U)
                 (B1U) (B3U) (AG) (B2G) (B3G) (B1U) (B3G) (B1G)
                 (B2U) (AU) (B2U) (AG) (B3U) (AG) (B1U) (B1U) (B3G)
                 (B1G) (B3G) (B2G) (AG) (B1U) (AU) (B2U) (AG) (B1G)
                 (B3U) (B3G) (AU) (B1U) (B2G) (AG) (B3U) (B1G)
                 (B2U) (B3G) (B3U) (B2G) (AU) (B2G) (B1G) (B2U)
                 (B3U) (AU) (B1U) (AG) (B2G) (B2U) (AG) (B1U) (AU)
                 (B3G) (B2U) (B2G) (B3G) (AG) (B1U) (B1U) (B2U)
                 (B3G) (AG) (B2U) (B1U) (B2U) (B3G) (B1U) (AG)
                 (B1U) (B3G) (B1U) (AG) (B3G) (B2U) (B3G) (B1U)
                 (B2U) (AG) (AG) (B3G) (B2U) (B3G) (B1U) (B1U)
                 (AG) (B3G) (B2U) (B2U) (B1U) (AG) (B2U) (B3G)
                 (B1U) (B3G) (AG) (B1U) (B3G) (AG) (B1U) (B2U)
                 (AG) (B3G) (B1U) (B3G) (B2U) (B2U) (B3G) (B1U)
                 (B2U) (AG) (B1U) (AG) (B3G) (B1U) (B3G) (AG) (B2U)
                 (B1U) (AG) (B2U) (AG) (B1U) (AG) (B3G) (B1U) (B3G)
                 (B2U) (B1U) (B3G) (AG) (B1U) (B2U) (B3G) (B1U)
                 (AG) (B2U) (B3G) (B1U) (B2U) (B3G) (B3G) (B1U)
                 (AG) (B2U) (B1U) (B3G) (B2U) (AG) (B1U) (AG) (B1U)
                 (B2U) (B3G) (AG) (B1U) (AG) (B3G) (B2U) (B2U)
                 (B1U) (B3G) (AG) (B3G) (B1U) (AG) (B2U) (AG) (B1U)
                 (B2U) (B3G) (B1U) (B1U) (AG) (B3G)
    80 initial guesses have been made.
 Convergence on wavefunction:    0.000001000000000
 Iteration     1 Dimension    80 NMult     0 NNew     80
 CISAX will form    54 AO SS matrices at one time.
 New state      1 was old state      3
 New state      2 was old state      1
 New state      3 was old state      4
 New state      4 was old state      7
 New state      5 was old state      6
 New state      6 was old state      2
 New state      7 was old state      9
 New state      8 was old state     10
 New state      9 was old state     11
 New state     10 was old state      5
 Iteration     2 Dimension   100 NMult    80 NNew     20
 New state      1 was old state      2
 New state      2 was old state      1
 New state      4 was old state      5
 New state      5 was old state      4
 New state      7 was old state     10
 New state      8 was old state      7
 New state      9 was old state     11
 New state     10 was old state      8
 Iteration     3 Dimension   120 NMult   100 NNew     20
 Iteration     4 Dimension   140 NMult   120 NNew     20
 Iteration     5 Dimension   160 NMult   140 NNew     20
 Iteration     6 Dimension   180 NMult   160 NNew     20
 Iteration     7 Dimension   200 NMult   180 NNew     20
 Iteration     8 Dimension   220 NMult   200 NNew     20
 Iteration     9 Dimension   238 NMult   220 NNew     18
 Iteration    10 Dimension   250 NMult   238 NNew     12
 ***********************************************************************
[...]
 ,0.12707639,0.,-0.02552497,-0.00273239,0.,0.01119193,-0.04357371,0.,0.
 00595709,0.00544492,0.,0.01027655,-0.00332550,0.,-0.01053400,-0.002692
 91,0.,0.00190439,0.00662858,0.,-0.00480213,-0.00699030,0.,-0.00481951,
 -0.00550214,0.,0.00170194,-0.00344436,0.,0.00002086,0.00572574,0.,-0.0
 0427466,0.00531065,0.,0.00949116,-0.00879562,0.,-0.01730824,0.00093175
 ,0.,0.01433238,0.00553422,0.,-0.01070208,0.00196721,0.,0.00233061,0.00
 804307,0.,-0.00012990,-0.00010509,0.,0.00003644,-0.00018560,0.,-0.0002
 3419,-0.00001838,0.,-0.20757050,-0.05251554,0.,-0.06123437,-0.00680463
 ,0.,0.00531900,0.01483242,0.,0.00144773,-0.00186782,0.,0.00257874,-0.0
 0076667,0.,-0.00117070,-0.00042866,0.,0.00399463,-0.00171520,0.,0.0001
 2255,-0.00001153,0.,-0.00007150,-0.00006730,0.,0.00309530,-0.00335014,
 0.,0.00000423,-0.00010263,0.,-0.00074684,-0.00033930,0.,0.00000771,-0.
 00001556,0.,0.00253335,-0.00060363,0.,-0.00020814,-0.00012155,0.,-0.00
 002303,0.00001520,0.,-0.00043260,-0.00298332,0.,0.00010069,-0.00001307
 ,0.,0.00268155,0.00475293,0.,0.00000236,-0.00009971,0.,0.00536439,0.05
 515054,0.,0.64678944,0.,0.00284656,0.00303784,0.,-0.03276796,-0.021508
 33,0.,0.00264777,-0.00661666,0.,-0.00193814,0.00101794,0.,0.00072742,-
 0.00110450,0.,0.00073268,-0.00118699,0.,-0.00063264,-0.00134315,0.,-0.
 00071943,-0.00032495,0.,0.00077987,-0.00023475,0.,0.00111596,0.0001233
 9,0.,-0.00001589,-0.00087373,0.,-0.00046586,0.00134755,0.,0.00093175,-
 0.00050768,0.,-0.00053815,0.00042252,0.,0.00030495,-0.00050805,0.,0.00
 068213,0.00077298,0.,0.00000504,-0.00002039,0.,-0.00001292,-0.00002723
 ,0.,-0.00002167,-0.00001222,0.,-0.08717834,-0.16640834,0.,0.00937115,0
 .01766556,0.,0.00523007,-0.00125768,0.,0.00153541,0.00087616,0.,0.0007
 6666,0.00127986,0.,-0.00012488,-0.00059331,0.,-0.00039953,0.00070383,0
 .,0.00002356,-0.00006278,0.,0.00013497,0.00002135,0.,-0.00031040,0.000
 16843,0.,-0.00001888,-0.00000895,0.,-0.00071451,-0.00013186,0.,0.00003
 755,-0.00003063,0.,0.00060363,0.00017409,0.,-0.00062601,-0.00159948,0.
 ,-0.00002553,-0.00000623,0.,-0.00001604,0.00197159,0.,0.00002550,-0.00
 002358,0.,0.00130243,-0.00270125,0.,-0.00001238,-0.00051012,0.,0.03423
 769,-0.03316756,0.,-0.04979367,0.72499840,0.00482621,0.,0.,-0.00299798
 ,0.,0.,-0.00106629,0.,0.,0.00025373,0.,0.,0.00007377,0.,0.,0.00499866,
 0.,0.,0.00015109,0.,0.,0.00000093,0.,0.,-0.00003772,0.,0.,0.00009684,0
 .,0.,0.00002452,0.,0.,-0.00000473,0.,0.,-0.00000092,0.,0.,0.00005868,0
 .,0.,-0.00005108,0.,0.,-0.00032604,0.,0.,0.00001624,0.,0.,0.00000194,0
 .,0.,-0.00000731,0.,0.,0.00768471,0.,0.,0.00422939,0.,0.,-0.00007195,0
 .,0.,-0.00022600,0.,0.,-0.00034002,0.,0.,0.00001853,0.,0.,-0.00000983,
 0.,0.,0.00001046,0.,0.,0.00003098,0.,0.,0.00001472,0.,0.,0.00000356,0.
 ,0.,-0.00003550,0.,0.,0.00000264,0.,0.,0.00009680,0.,0.,-0.00051588,0.
 ,0.,0.00003585,0.,0.,-0.00108287,0.,0.,0.00004736,0.,0.,0.00521117,0.,
 0.,0.00015023,0.,0.,-0.06240937,0.,0.,-0.05694324,0.,0.,0.12678656,0.,
 0.01840956,-0.02857153,0.,-0.00477957,0.01703549,0.,-0.00298522,-0.001
 85376,0.,-0.00576937,0.00230903,0.,0.00729644,-0.00080880,0.,-0.008042
 13,-0.00660245,0.,0.00203655,0.00292372,0.,0.00241635,0.00261593,0.,-0
 .00023337,0.00218666,0.,0.00035373,-0.00328191,0.,0.00214021,-0.004158
 98,0.,-0.00579831,0.00524450,0.,0.00949116,-0.00046586,0.,-0.00796096,
 -0.00237015,0.,0.00527859,-0.00133421,0.,-0.00183641,-0.00264449,0.,0.
 00000723,-0.00000171,0.,-0.00001497,0.00012943,0.,0.00011351,-0.000000
 80,0.,-0.06547010,-0.00811605,0.,0.00815072,-0.00641144,0.,-0.00327951
 ,-0.00422489,0.,0.00003578,0.00046393,0.,-0.00117070,0.00012489,0.,-0.
 00026531,-0.00040319,0.,-0.00128151,0.00177206,0.,-0.00007076,0.000024
 44,0.,-0.00003336,-0.00000336,0.,-0.00208669,0.00259644,0.,0.00000459,
 0.00007716,0.,-0.00021552,-0.00088824,0.,-0.00001774,-0.00000559,0.,-0
 .00020814,0.00062601,0.,-0.00009304,-0.00080926,0.,0.00001114,-0.00011
 166,0.,0.00050839,0.00271125,0.,0.00000035,-0.00001567,0.,-0.00730673,
 -0.00222426,0.,0.00001162,0.00148403,0.,-0.11381592,-0.02987882,0.,-0.
 31061073,0.13522035,0.,0.74835039,0.,-0.03737784,-0.02934423,0.,0.0118
 4224,-0.01872808,0.,-0.00017556,0.00063251,0.,0.00562277,-0.00270730,0
 .,-0.00429220,0.00353385,0.,-0.00503031,0.00625203,0.,-0.00009575,-0.0
 0186102,0.,-0.00104329,-0.00024158,0.,-0.00024787,-0.00159215,0.,-0.00
 235145,0.00296045,0.,-0.00221869,0.00663446,0.,0.00524450,-0.00841479,
 0.,-0.00879562,0.00134755,0.,0.00566635,-0.00058605,0.,-0.00353606,0.0
 0137480,0.,-0.00144716,-0.00008915,0.,-0.00007413,-0.00001543,0.,0.000
 07909,-0.00004050,0.,-0.00009102,0.00001385,0.,0.01728033,0.03883070,0
 .,-0.01073600,-0.00052681,0.,0.00063073,0.00352942,0.,-0.00031765,0.00
 000898,0.,0.00042867,-0.00059331,0.,0.00040319,0.00067111,0.,0.0019104
 7,-0.00281548,0.,0.00003171,-0.00003145,0.,-0.00006104,0.00006883,0.,0
 .00260109,-0.00434467,0.,0.00006062,-0.00000989,0.,0.00150669,0.002520
 44,0.,-0.00006706,0.00006320,0.,0.00012155,-0.00159947,0.,0.00080926,0
 .00251804,0.,0.00004625,-0.00001091,0.,0.00029995,-0.00591422,0.,0.000
 02893,0.00004282,0.,0.00233675,0.01032091,0.,-0.00000458,-0.00000868,0
 .,-0.00125378,-0.25947214,0.,0.08330692,-0.18946632,0.,0.00469596,0.62
 486574,0.00456373,0.,0.,-0.00076348,0.,0.,-0.00052644,0.,0.,0.00001941
 ,0.,0.,-0.00031444,0.,0.,0.00023774,0.,0.,0.00010177,0.,0.,0.00008430,
 0.,0.,-0.00001128,0.,0.,0.00003137,0.,0.,0.00000320,0.,0.,0.00000068,0
 .,0.,-0.00002544,0.,0.,0.00000137,0.,0.,0.00004579,0.,0.,-0.00007726,0
 .,0.,0.00001548,0.,0.,0.00000441,0.,0.,-0.00000020,0.,0.,0.00817441,0.
 ,0.,0.00010472,0.,0.,-0.00057474,0.,0.,0.00014612,0.,0.,-0.00001676,0.
 ,0.,0.00003088,0.,0.,-0.00002233,0.,0.,-0.00000089,0.,0.,-0.00000145,0
 .,0.,-0.00000246,0.,0.,-0.00000274,0.,0.,0.00000450,0.,0.,0.00000578,0
 .,0.,-0.00001367,0.,0.,0.00003452,0.,0.,0.00001011,0.,0.,0.00015184,0.
 ,0.,-0.00000720,0.,0.,-0.00024358,0.,0.,0.00005304,0.,0.,0.00313893,0.
 ,0.,0.00453620,0.,0.,-0.03544314,0.,0.,0.02353636,0.,0.00103100,0.0007
 4082,0.,0.00022294,0.00033814,0.,0.00004698,-0.00004831,0.,-0.00004864
 ,-0.00001501,0.,-0.00000762,-0.00009861,0.,0.00003205,0.00025905,0.,0.
 00002487,0.00002893,0.,-0.00002963,-0.00003023,0.,0.00000959,-0.000025
 49,0.,0.00002607,-0.00002037,0.,-0.00000106,-0.00005244,0.,-0.00001497
 ,0.00007909,0.,0.00003644,-0.00001292,0.,0.00000906,0.00003746,0.,0.00
 000185,0.00001398,0.,0.00005241,0.00001513,0.,0.00000038,-0.00001021,0
 .,-0.00000664,-0.00000466,0.,-0.00000011,-0.00000788,0.,-0.00203994,0.
 00422567,0.,-0.00070168,-0.00117801,0.,-0.00027031,0.00038008,0.,-0.00
 000670,0.00005550,0.,-0.00007150,-0.00013497,0.,-0.00003336,0.00006104
 ,0.,-0.00002464,0.00001186,0.,0.00000479,0.00001264,0.,-0.00001885,-0.
 00000950,0.,0.00000643,0.00004685,0.,-0.00000667,-0.00000749,0.,-0.000
 05522,-0.00002419,0.,-0.00000077,0.00000197,0.,-0.00002303,0.00002553,
 0.,0.00001114,-0.00004625,0.,0.00000712,-0.00000321,0.,0.00010732,0.00
 010770,0.,-0.00000179,-0.00001008,0.,0.00016831,-0.00034419,0.,-0.0000
 0008,-0.00003928,0.,0.00254254,0.00101325,0.,-0.02015640,-0.01576624,0
 .,-0.26509142,-0.11891477,0.,0.28208799,0.,0.00192943,-0.00527631,0.,0
 .00069928,-0.00051091,0.,-0.00002694,0.00016892,0.,0.00013988,-0.00001
 902,0.,0.00001412,-0.00051944,0.,-0.00163634,0.00007554,0.,0.00000609,
 -0.00009178,0.,-0.00011064,0.00002290,0.,-0.00001438,-0.00010841,0.,-0
 .00004655,0.00001039,0.,-0.00001465,0.00012562,0.,0.00012943,-0.000040
 50,0.,-0.00018560,-0.00002723,0.,0.00021256,0.00010586,0.,-0.00004763,
 -0.00003700,0.,-0.00008464,-0.00004037,0.,-0.00001649,-0.00001434,0.,-
 0.00000466,-0.00001315,0.,-0.00000509,-0.00000147,0.,0.00308602,-0.001
 44576,0.,0.00034168,0.00066632,0.,0.00013324,-0.00004735,0.,-0.0000065
 2,-0.00002174,0.,0.00006730,0.00002135,0.,0.00000336,0.00006883,0.,0.0
 0003642,-0.00004858,0.,0.00000075,0.00000072,0.,0.00000950,-0.00000403
 ,0.,0.00014689,-0.00002943,0.,-0.00001164,-0.00000768,0.,-0.00012420,0
 .00002689,0.,0.00000721,-0.00000601,0.,-0.00001520,-0.00000623,0.,0.00
 011166,-0.00001091,0.,0.00000321,-0.00002563,0.,-0.00005953,0.00013114
 ,0.,0.00000395,-0.00000324,0.,0.00050987,-0.00005284,0.,0.00000082,-0.
 00002176,0.,-0.02832099,-0.01165908,0.,0.01540609,0.01215082,0.,-0.119
 44010,-0.12866300,0.,0.12825565,0.13282666,0.00609329,0.,0.,0.00466187
 ,0.,0.,-0.00008672,0.,0.,0.00035024,0.,0.,-0.00114909,0.,0.,-0.0036077
 5,0.,0.,-0.00019735,0.,0.,0.00005377,0.,0.,-0.00004271,0.,0.,-0.000058
 64,0.,0.,0.00004285,0.,0.,0.00002471,0.,0.,-0.00002569,0.,0.,-0.000013
 63,0.,0.,0.00009375,0.,0.,0.00011467,0.,0.,-0.00001169,0.,0.,-0.000001
 68,0.,0.,-0.00000256,0.,0.,-0.00123577,0.,0.,-0.00022913,0.,0.,0.00012
 501,0.,0.,0.00003879,0.,0.,-0.00001101,0.,0.,-0.00002710,0.,0.,0.00007
 061,0.,0.,0.00000068,0.,0.,0.00000532,0.,0.,0.00000174,0.,0.,-0.000000
 73,0.,0.,-0.00001736,0.,0.,-0.00002418,0.,0.,-0.00003054,0.,0.,0.00523
 413,0.,0.,-0.00024155,0.,0.,0.00766187,0.,0.,-0.00050166,0.,0.,-0.0559
 6878,0.,0.,0.00388626,0.,0.,-0.06136948,0.,0.,0.00401575,0.,0.,0.00552
 718,0.,0.,-0.00237755,0.,0.,0.12329168,0.,-0.05050258,0.00120914,0.,0.
 00186295,-0.00504042,0.,-0.00302312,-0.00156326,0.,-0.00140389,0.00208
 473,0.,0.00096720,-0.00341257,0.,-0.00222069,0.00816940,0.,-0.00146347
 ,-0.00113854,0.,0.00321316,-0.00214549,0.,-0.00314443,0.00269595,0.,0.
 00196139,-0.00120700,0.,0.00429190,-0.00318984,0.,-0.00208670,0.002601
 09,0.,0.00309529,-0.00031040,0.,-0.00337243,0.00063697,0.,0.00143656,-
 0.00088500,0.,-0.00184656,0.00388540,0.,-0.00001114,0.00002763,0.,0.00
 000643,0.00014689,0.,0.00008360,0.00001767,0.,-0.00179453,-0.00042937,
 0.,-0.00051392,-0.00003147,0.,0.00179795,-0.00097299,0.,-0.00000942,0.
 00003945,0.,-0.00074683,0.00071451,0.,-0.00021552,-0.00150670,0.,-0.00
 083532,0.00156493,0.,-0.00006538,0.00000546,0.,-0.00005522,0.00012419,
 0.,-0.00522660,0.00484919,0.,0.00009204,0.00018244,0.,0.00162187,-0.00
 435050,0.,-0.00020036,0.00005681,0.,0.00268155,-0.00130243,0.,-0.00730
 673,-0.00233674,0.,0.00016831,-0.00050987,0.,0.01541706,-0.02946269,0.
 ,-0.00035810,-0.00029250,0.,-0.12479471,-0.02458121,0.,0.00409345,0.02
 930036,0.,-0.25637978,0.08318969,0.,0.00879853,-0.00597772,0.,-0.00163
 431,0.02588524,0.,0.00085318,-0.00186766,0.,0.68359827,0.,0.01206049,0
 .02766635,0.,-0.01509469,-0.00539656,0.,0.00596107,0.00531579,0.,0.006
 93718,-0.00363925,0.,-0.00814933,0.00277644,0.,0.01656788,-0.01160527,
 0.,-0.00636310,-0.00464079,0.,-0.00677238,0.00359362,0.,0.00628132,-0.
 00631266,0.,0.00485147,0.00702935,0.,-0.00823290,0.00501092,0.,0.00259
 644,-0.00434466,0.,-0.00335014,0.00016843,0.,0.00329092,-0.00292611,0.
 ,-0.00240018,0.00007368,0.,0.00267804,-0.00277049,0.,-0.00003032,0.000
 03443,0.,0.00004685,-0.00002943,0.,-0.00002332,0.00002564,0.,0.0044043
 2,0.00498300,0.,-0.00022470,0.00056654,0.,0.00070502,0.00363797,0.,-0.
 00006256,0.00001182,0.,0.00033930,-0.00013186,0.,0.00088824,0.00252044
 ,0.,-0.00553280,-0.00434582,0.,0.00001021,-0.00000831,0.,0.00002419,0.
 00002689,0.,0.00484920,-0.01623888,0.,0.00018353,-0.00016445,0.,0.0043
 5049,0.01500571,0.,0.00013689,0.00015678,0.,-0.00475293,-0.00270125,0.
 ,0.00222427,0.01032091,0.,0.00034419,-0.00005284,0.,-0.05146001,-0.040
 64337,0.,-0.00014006,0.00001487,0.,0.02458120,-0.33100296,0.,-0.001547
 31,-0.01135299,0.,0.05129179,-0.14943665,0.,-0.01241297,-0.00257454,0.
 ,0.04286133,-0.03788434,0.,0.00125607,0.00148149,0.,0.04390301,0.67557
 192,0.00553231,0.,0.,0.00020653,0.,0.,-0.00039156,0.,0.,0.00006972,0.,
 0.,-0.00046676,0.,0.,-0.00086078,0.,0.,-0.00008034,0.,0.,0.00007596,0.
 ,0.,-0.00001971,0.,0.,0.00005524,0.,0.,-0.00001111,0.,0.,0.00000184,0.
 ,0.,0.00000236,0.,0.,-0.00001974,0.,0.,-0.00000199,0.,0.,0.00011881,0.
 ,0.,-0.00000738,0.,0.,-0.00000323,0.,0.,0.00000314,0.,0.,0.00018938,0.
 ,0.,0.00004342,0.,0.,-0.00001850,0.,0.,0.00001676,0.,0.,-0.00001720,0.
 ,0.,-0.00000431,0.,0.,0.00004053,0.,0.,0.00000240,0.,0.,0.00000564,0.,
 0.,-0.00000257,0.,0.,0.00000808,0.,0.,-0.00002193,0.,0.,-0.00000740,0.
 ,0.,-0.00028599,0.,0.,0.00014971,0.,0.,0.00005279,0.,0.,0.00643962,0.,
 0.,-0.00001869,0.,0.,0.00389064,0.,0.,-0.00382637,0.,0.,0.00365757,0.,
 0.,-0.00025915,0.,0.,-0.00316101,0.,0.,0.00032733,0.,0.,-0.03420617,0.
 ,0.,0.02267937,0.,-0.00255731,0.00427094,0.,-0.00051738,-0.00131876,0.
 ,-0.00031845,0.00038768,0.,-0.00007777,0.00003856,0.,0.00005261,-0.000
 11087,0.,0.00009729,0.00059472,0.,0.00008417,-0.00005054,0.,0.00000653
 ,0.00001105,0.,-0.00005103,-0.00000819,0.,-0.00015240,-0.00008069,0.,0
 .00007724,0.00001526,0.,0.00000459,0.00006062,0.,0.00000423,-0.0000188
 8,0.,0.00003935,0.00007977,0.,0.00003156,0.00001871,0.,0.00002954,-0.0
 0008554,0.,-0.00000166,-0.00001309,0.,-0.00000668,-0.00001164,0.,-0.00
 000443,-0.00000733,0.,0.00013072,-0.00025854,0.,0.00004040,0.00006269,
 0.,-0.00007284,-0.00000532,0.,-0.00002693,0.00002896,0.,0.00000771,-0.
 00003755,0.,-0.00001774,0.00006707,0.,0.00008725,0.00000017,0.,-0.0000
 0119,0.00000953,0.,-0.00000077,-0.00000722,0.,0.00009204,0.00018353,0.
 ,-0.00001473,-0.00000846,0.,-0.00020036,-0.00013689,0.,0.00000332,-0.0
 0000664,0.,0.00000236,0.00001238,0.,0.00001162,0.00000458,0.,-0.000000
 08,-0.00000082,0.,0.00154213,0.00087747,0.,-0.00000545,-0.00000053,0.,
 0.00409346,0.00154731,0.,0.00079612,-0.00040326,0.,-0.02029212,-0.0152
 7130,0.,0.00005994,0.00048773,0.,0.00112002,-0.00207587,0.,0.00033135,
 0.00120429,0.,-0.26746555,-0.11815820,0.,0.28306995,0.,0.00286329,-0.0
 0178219,0.,0.00053276,0.00052611,0.,0.00025088,-0.00011975,0.,0.000031
 56,-0.00007269,0.,-0.00022114,0.00012343,0.,0.00052168,-0.00021094,0.,
 0.00007474,0.00003975,0.,-0.00015560,0.00005886,0.,0.00009080,-0.00011
 603,0.,-0.00000760,0.00001953,0.,-0.00015291,0.00006095,0.,0.00007716,
 -0.00000989,0.,-0.00010263,-0.00000895,0.,0.00013442,0.00000551,0.,-0.
 00005022,0.00003529,0.,0.00015446,-0.00007634,0.,0.00000562,0.00000030
 ,0.,-0.00000749,-0.00000768,0.,0.00000035,-0.00000210,0.,0.00003623,0.
 00016825,0.,-0.00001483,-0.00002363,0.,-0.00005966,0.00011127,0.,0.000
 01086,-0.00000365,0.,0.00001556,-0.00003063,0.,0.00000559,0.00006320,0
 .,-0.00002156,-0.00002891,0.,0.00000637,0.00000190,0.,-0.00000197,-0.0
 0000601,0.,0.00018244,-0.00016445,0.,-0.00000846,-0.00000971,0.,-0.000
 05681,0.00015678,0.,0.00000664,0.00000050,0.,0.00009971,-0.00051012,0.
 ,-0.00148403,-0.00000868,0.,0.00003928,-0.00002176,0.,0.00206735,-0.00
 522766,0.,-0.00014091,-0.00008019,0.,-0.02930036,-0.01135299,0.,0.0004
 0326,0.00104900,0.,0.01405127,0.01094815,0.,-0.00037374,0.00011301,0.,
 0.00128569,0.00115413,0.,-0.00046309,-0.00006022,0.,-0.11838345,-0.127
 09050,0.,0.12807948,0.13237998,-0.00076589,0.,0.,0.00473712,0.,0.,0.00
 020870,0.,0.,-0.00021236,0.,0.,0.00003076,0.,0.,-0.00068769,0.,0.,0.00
 010341,0.,0.,-0.00002901,0.,0.,0.00000335,0.,0.,0.00002988,0.,0.,0.000
 00096,0.,0.,-0.00000748,0.,0.,0.00000268,0.,0.,-0.00002876,0.,0.,0.000
 00046,0.,0.,0.00009019,0.,0.,-0.00001355,0.,0.,-0.00000017,0.,0.,0.000
 01543,0.,0.,0.00317366,0.,0.,-0.00252008,0.,0.,-0.00023258,0.,0.,0.000
 32723,0.,0.,0.00005302,0.,0.,0.00001038,0.,0.,-0.00001000,0.,0.,0.0000
 0667,0.,0.,-0.00000092,0.,0.,-0.00000351,0.,0.,0.00000280,0.,0.,-0.000
 00002,0.,0.,0.00000257,0.,0.,-0.00000903,0.,0.,0.00004664,0.,0.,-0.000
 00724,0.,0.,0.00011586,0.,0.,-0.00000033,0.,0.,-0.00050235,0.,0.,-0.00
 001857,0.,0.,0.00817786,0.,0.,-0.03557577,0.,0.,0.00437815,0.,0.,-0.00
 493892,0.,0.,0.00014433,0.,0.,0.00012274,0.,0.,0.02377939,0.,-0.000661
 39,0.00005745,0.,-0.00489269,-0.00141449,0.,0.00058494,-0.00133729,0.,
 -0.00034276,-0.00009880,0.,-0.00019190,-0.00000359,0.,0.00017693,0.000
 13771,0.,0.00018445,-0.00015746,0.,-0.00000662,-0.00020965,0.,0.000044
 36,-0.00004876,0.,-0.00005489,0.00013897,0.,-0.00003485,0.00006835,0.,
 0.00011351,-0.00009102,0.,-0.00023419,-0.00002167,0.,0.00016083,0.0001
 2508,0.,-0.00014702,0.00000902,0.,0.00004123,0.00016630,0.,0.00000008,
 0.00000025,0.,-0.00000011,-0.00000509,0.,-0.00001037,-0.00000121,0.,0.
 00358864,-0.02767731,0.,0.00149852,-0.00136827,0.,-0.00005428,0.000468
 49,0.,-0.00028610,0.00081355,0.,0.00012255,-0.00002356,0.,-0.00007076,
 -0.00003171,0.,0.00008600,-0.00002000,0.,-0.00003276,0.00001173,0.,0.0
 0000479,-0.00000075,0.,0.00008360,-0.00002332,0.,-0.00000443,0.0000003
 5,0.,-0.00006538,-0.00001021,0.,-0.00000119,-0.00000637,0.,0.00010069,
 -0.00002550,0.,0.00000035,-0.00002893,0.,-0.00000179,-0.00000395,0.,0.
 00000171,-0.00014495,0.,0.00000483,0.00000293,0.,-0.00035810,0.0001400
 6,0.,-0.00000545,0.00014091,0.,-0.00476267,0.00153437,0.,-0.05958897,-
 0.00167402,0.,0.00433549,0.02936848,0.,0.00099720,-0.00041927,0.,0.000
 63661,0.00108300,0.,-0.00003061,-0.00002098,0.,0.05907196,0.,-0.000143
 25,0.00045714,0.,-0.00271489,0.00069964,0.,0.00060908,-0.00069950,0.,-
 0.00029357,-0.00004182,0.,-0.00003611,0.00000024,0.,0.00000586,-0.0000
 0284,0.,0.00012696,0.00014183,0.,0.00008921,-0.00008315,0.,-0.00002516
 ,0.00001321,0.,-0.00008427,0.00004575,0.,0.00000573,-0.00001577,0.,-0.
 00000080,0.00001385,0.,-0.00001838,-0.00001222,0.,-0.00002065,0.000005
 08,0.,0.00000741,-0.00001920,0.,-0.00002646,0.00001647,0.,-0.00000221,
 -0.00000388,0.,-0.00000788,-0.00000147,0.,-0.00000121,-0.00000506,0.,0
 .00161964,-0.01281958,0.,0.00166670,0.00086273,0.,-0.00041211,0.000191
 09,0.,-0.00081372,0.00054262,0.,0.00001153,-0.00006278,0.,-0.00002444,
 -0.00003145,0.,0.00000197,0.00000050,0.,-0.00001173,0.00002053,0.,-0.0
 0001264,0.00000072,0.,0.00001767,0.00002564,0.,-0.00000733,-0.00000210
 ,0.,-0.00000546,-0.00000831,0.,-0.00000953,0.00000190,0.,0.00001307,-0
 .00002359,0.,0.00001567,0.00004282,0.,0.00001008,-0.00000324,0.,-0.000
 01688,-0.00007073,0.,-0.00000293,-0.00000651,0.,0.00029249,0.00001487,
 0.,0.00000053,-0.00008019,0.,0.00271335,0.00132130,0.,-0.00129760,-0.3
 3403407,0.,-0.00176112,-0.01238286,0.,0.00030100,0.00092997,0.,-0.0003
 9236,-0.00069902,0.,0.00003362,0.00000977,0.,0.00060113,0.35575165\\0.
 ,0.00000069,0.00000842,0.,0.00000309,0.00000138,0.,0.,-0.00000808,0.,0
 .,0.00000808,0.,0.00000309,-0.00000138,0.,0.00000069,-0.00000842,0.,-0
 .00000309,0.00000138,0.,-0.00000309,-0.00000138,0.,-0.00000069,-0.0000
 0842,0.,-0.00000069,0.00000842,0.,0.00000098,0.00000443,0.,0.00000195,
 -0.00000318,0.,-0.00000233,0.00000149,0.,0.00000221,-0.00000067,0.,0.,
 0.00000250,0.,-0.00000221,-0.00000067,0.,0.,-0.00000063,0.,-0.00000028
 ,0.00000026,0.,-0.00000005,-0.00000034,0.,-0.00000221,0.00000067,0.,0.
 ,-0.00000250,0.,0.00000221,0.00000067,0.,0.,0.00000063,0.,-0.00000233,
 -0.00000149,0.,0.00000195,0.00000318,0.,0.00000098,-0.00000443,0.,-0.0
 0000005,0.00000034,0.,-0.00000028,-0.00000026,0.,0.00000021,0.00000211
 ,0.,-0.00000006,-0.00000006,0.,0.00000021,-0.00000211,0.,-0.00000006,0
 .00000006,0.,0.00000233,0.00000149,0.,-0.00000195,-0.00000318,0.,0.000
 00028,0.00000026,0.,-0.00000098,0.00000443,0.,0.00000005,-0.00000034,0
 .,-0.00000021,0.00000211,0.,0.00000006,-0.00000006,0.,-0.00000098,-0.0
 0000443,0.,0.00000233,-0.00000149,0.,-0.00000195,0.00000318,0.,0.00000
 028,-0.00000026,0.,-0.00000021,-0.00000211,0.,0.00000006,0.00000006,0.
 ,0.00000005,0.00000034\\\@
 GROWING OLD ISN'T SO BAD -- WHEN YOU CONSIDER THE ALTERNATIVE.
                     -- MAURICE CHEVALIER
 Job cpu time:       4 days 23 hours 45 minutes 11.8 seconds.
 Elapsed time:       0 days  6 hours 40 minutes 55.4 seconds.
 File lengths (MBytes):  RWF=  13563 Int=      0 D2E=      0 Chk=    439 Scr=      1
 Normal termination of Gaussian 16 at Mon Feb 27 23:50:17 2023.
