 Entering Gaussian System, Link 0=g16
 Initial command:
 /opt//g16/l1.exe "/opt/g16/scratch/Gau-2175873.inp" -scrdir="/opt/g16/scratch/"
 Default is to use a total of  12 processors:
                               12 via shared-memory
                                1 via Linda
 Entering Link 1 = /opt//g16/l1.exe PID=   2175875.
  
 Copyright (c) 1988,1990,1992,1993,1995,1998,2003,2009,2016,
            Gaussian, Inc.  All Rights Reserved.
  
 This is part of the Gaussian(R) 16 program.  It is based on
 the Gaussian(R) 09 system (copyright 2009, Gaussian, Inc.),
 the Gaussian(R) 03 system (copyright 2003, Gaussian, Inc.),
 the Gaussian(R) 98 system (copyright 1998, Gaussian, Inc.),
 the Gaussian(R) 94 system (copyright 1995, Gaussian, Inc.),
 the Gaussian 92(TM) system (copyright 1992, Gaussian, Inc.),
 the Gaussian 90(TM) system (copyright 1990, Gaussian, Inc.),
 the Gaussian 88(TM) system (copyright 1988, Gaussian, Inc.),
 the Gaussian 86(TM) system (copyright 1986, Carnegie Mellon
 University), and the Gaussian 82(TM) system (copyright 1983,
 Carnegie Mellon University). Gaussian is a federally registered
 trademark of Gaussian, Inc.
  
 This software contains proprietary and confidential information,
 including trade secrets, belonging to Gaussian, Inc.
  
 This software is provided under written license and may be
 used, copied, transmitted, or stored only in accord with that
 written license.
  
 The following legend is applicable only to US Government
 contracts under FAR:
  
                    RESTRICTED RIGHTS LEGEND
  
 Use, reproduction and disclosure by the US Government is
 subject to restrictions as set forth in subparagraphs (a)
 and (c) of the Commercial Computer Software - Restricted
 Rights clause in FAR 52.227-19.
  
 Gaussian, Inc.
 340 Quinnipiac St., Bldg. 40, Wallingford CT 06492
  
  
 ---------------------------------------------------------------
 Warning -- This program may not be used in any manner that
 competes with the business of Gaussian, Inc. or will provide
 assistance to any competitor of Gaussian, Inc.  The licensee
 of this program is prohibited from giving any competitor of
 Gaussian, Inc. access to this program.  By using this program,
 the user acknowledges that Gaussian, Inc. is engaged in the
 business of creating and licensing software in the field of
 computational chemistry and represents and warrants to the
 licensee that it is not a competitor of Gaussian, Inc. and that
 it will not use this program in any manner prohibited above.
 ---------------------------------------------------------------
  

 Cite this work as:
 Gaussian 16, Revision A.03,
 M. J. Frisch, G. W. Trucks, H. B. Schlegel, G. E. Scuseria, 
 M. A. Robb, J. R. Cheeseman, G. Scalmani, V. Barone, 
 G. A. Petersson, H. Nakatsuji, X. Li, M. Caricato, A. V. Marenich, 
 J. Bloino, B. G. Janesko, R. Gomperts, B. Mennucci, H. P. Hratchian, 
 J. V. Ortiz, A. F. Izmaylov, J. L. Sonnenberg, D. Williams-Young, 
 F. Ding, F. Lipparini, F. Egidi, J. Goings, B. Peng, A. Petrone, 
 T. Henderson, D. Ranasinghe, V. G. Zakrzewski, J. Gao, N. Rega, 
 G. Zheng, W. Liang, M. Hada, M. Ehara, K. Toyota, R. Fukuda, 
 J. Hasegawa, M. Ishida, T. Nakajima, Y. Honda, O. Kitao, H. Nakai, 
 T. Vreven, K. Throssell, J. A. Montgomery, Jr., J. E. Peralta, 
 F. Ogliaro, M. J. Bearpark, J. J. Heyd, E. N. Brothers, K. N. Kudin, 
 V. N. Staroverov, T. A. Keith, R. Kobayashi, J. Normand, 
 K. Raghavachari, A. P. Rendell, J. C. Burant, S. S. Iyengar, 
 J. Tomasi, M. Cossi, J. M. Millam, M. Klene, C. Adamo, R. Cammi, 
 J. W. Ochterski, R. L. Martin, K. Morokuma, O. Farkas, 
 J. B. Foresman, and D. J. Fox, Gaussian, Inc., Wallingford CT, 2016.
 
 ******************************************
 Gaussian 16:  ES64L-G16RevA.03 25-Dec-2016
                 1-Mar-2023 
 ******************************************
 %nprocshared=4
 Will use up to    4 processors via shared memory.
 %mem=15GB
 %chk=ovalene-ground-opt-freq-disp.chk
 -------------------------------------------------------------------
 #p freq=(readfc,fcht,savenm,readfcht,emission) nosymm geom=allcheck
 -------------------------------------------------------------------
 1/29=7,38=1,172=1/1;
 2/12=2,15=1,40=1/2;
 7/8=1,25=11,30=1,71=120,92=1,121=1/16,18;
 99/5=5/99;
 Leave Link    1 at Wed Mar  1 22:13:12 2023, MaxMem=  2013265920 cpu:               0.1 elap:               0.0
 (Enter /opt//g16/l101.exe)
 Structure from the checkpoint file:  "ovalene-ground-opt-freq-disp.chk"
 --------------------------------------------------------
 Ovalene ground state optimization + freq with dispersion
 --------------------------------------------------------
 Charge =  0 Multiplicity = 1
 Redundant internal coordinates found in file.  (old form).
 C,0,0.,0.7108887714,2.4556019
 C,0,0.,1.4215653574,1.2236317502
 C,0,0.,0.71517186,-0.0000000014
 C,0,0.,-0.71517186,-0.0000000014
 C,0,0.,-1.4215653574,1.2236317502
 C,0,0.,-0.7108887714,2.4556019
 C,0,0.,1.4215653574,-1.2236317529
 C,0,0.,-1.4215653574,-1.2236317529
 C,0,0.,-0.7108887714,-2.4556019027
 C,0,0.,0.7108887714,-2.4556019027
 C,0,0.,-1.417882542,-3.6835415762
 C,0,0.,-2.8464322344,-3.6525545209
 C,0,0.,-3.5302524887,-2.4776521646
 C,0,0.,-2.8484392161,-1.2198773979
 C,0,0.,-3.5279272484,-0.0000000014
 C,0,0.,-2.8484392161,1.2198773952
 H,0,0.,-4.610361778,-0.0000000014
 H,0,0.,-3.3811641492,-4.5930384916
 H,0,0.,-4.6119812732,-2.4762129922
 C,0,0.,2.8484392161,1.2198773952
 C,0,0.,3.5279272484,-0.0000000014
 C,0,0.,2.8484392161,-1.2198773979
 H,0,0.,4.610361778,-0.0000000014
 C,0,0.,3.5302524887,-2.4776521646
 C,0,0.,2.8464322344,-3.6525545209
 C,0,0.,1.417882542,-3.6835415762
 H,0,0.,4.6119812732,-2.4762129922
 H,0,0.,3.3811641492,-4.5930384916
 C,0,0.,-0.6877095207,-4.8896940173
 H,0,0.,-1.2285550841,-5.8265924639
 C,0,0.,0.6877095207,-4.8896940173
 H,0,0.,1.2285550841,-5.8265924639
 C,0,0.,-3.5302524887,2.4776521619
 C,0,0.,-2.8464322344,3.6525545182
 H,0,0.,-3.3811641492,4.5930384889
 C,0,0.,-1.417882542,3.6835415735
 H,0,0.,-4.6119812732,2.4762129895
 C,0,0.,-0.6877095207,4.8896940146
 H,0,0.,-1.2285550841,5.8265924612
 C,0,0.,1.417882542,3.6835415735
 C,0,0.,3.5302524887,2.4776521619
 C,0,0.,2.8464322344,3.6525545182
 H,0,0.,3.3811641492,4.5930384889
 C,0,0.,0.6877095207,4.8896940146
 H,0,0.,1.2285550841,5.8265924612
 H,0,0.,4.6119812732,2.4762129895
 Recover connectivity data from disk.
 ITRead=  0  0  0  0  0  0  0  0  0  0  0  0  0  0  0  0  0  0  0  0
 ITRead=  0  0  0  0  0  0  0  0  0  0  0  0  0  0  0  0  0  0  0  0
 ITRead=  0  0  0  0  0  0
 MicOpt= -1 -1 -1 -1 -1 -1 -1 -1 -1 -1 -1 -1 -1 -1 -1 -1 -1 -1 -1 -1
 MicOpt= -1 -1 -1 -1 -1 -1 -1 -1 -1 -1 -1 -1 -1 -1 -1 -1 -1 -1 -1 -1
 MicOpt= -1 -1 -1 -1 -1 -1
                           ----------------------------
                           !    Current Parameters    !
                           ! (Angstroms and Degrees)  !
 --------------------------                            --------------------------
 ! Name  Definition              Value          Derivative Info.                !
 --------------------------------------------------------------------------------
 ! R1    R(1,2)                  1.4223         estimate D2E/DX2                !
 ! R2    R(1,6)                  1.4218         estimate D2E/DX2                !
 ! R3    R(1,40)                 1.4169         estimate D2E/DX2                !
 ! R4    R(2,3)                  1.4129         estimate D2E/DX2                !
 ! R5    R(2,20)                 1.4269         estimate D2E/DX2                !
 ! R6    R(3,4)                  1.4303         estimate D2E/DX2                !
 ! R7    R(3,7)                  1.4129         estimate D2E/DX2                !
 ! R8    R(4,5)                  1.4129         estimate D2E/DX2                !
 ! R9    R(4,8)                  1.4129         estimate D2E/DX2                !
 ! R10   R(5,6)                  1.4223         estimate D2E/DX2                !
 ! R11   R(5,16)                 1.4269         estimate D2E/DX2                !
 ! R12   R(6,36)                 1.4169         estimate D2E/DX2                !
 ! R13   R(7,10)                 1.4223         estimate D2E/DX2                !
 ! R14   R(7,22)                 1.4269         estimate D2E/DX2                !
 ! R15   R(8,9)                  1.4223         estimate D2E/DX2                !
 ! R16   R(8,14)                 1.4269         estimate D2E/DX2                !
 ! R17   R(9,10)                 1.4218         estimate D2E/DX2                !
 ! R18   R(9,11)                 1.4169         estimate D2E/DX2                !
 ! R19   R(10,26)                1.4169         estimate D2E/DX2                !
 ! R20   R(11,12)                1.4289         estimate D2E/DX2                !
 ! R21   R(11,29)                1.4099         estimate D2E/DX2                !
 ! R22   R(12,13)                1.3594         estimate D2E/DX2                !
 ! R23   R(12,18)                1.0819         estimate D2E/DX2                !
 ! R24   R(13,14)                1.4307         estimate D2E/DX2                !
 ! R25   R(13,19)                1.0817         estimate D2E/DX2                !
 ! R26   R(14,15)                1.3964         estimate D2E/DX2                !
 ! R27   R(15,16)                1.3964         estimate D2E/DX2                !
 ! R28   R(15,17)                1.0824         estimate D2E/DX2                !
 ! R29   R(16,33)                1.4307         estimate D2E/DX2                !
 ! R30   R(20,21)                1.3964         estimate D2E/DX2                !
 ! R31   R(20,41)                1.4307         estimate D2E/DX2                !
 ! R32   R(21,22)                1.3964         estimate D2E/DX2                !
 ! R33   R(21,23)                1.0824         estimate D2E/DX2                !
 ! R34   R(22,24)                1.4307         estimate D2E/DX2                !
 ! R35   R(24,25)                1.3594         estimate D2E/DX2                !
 ! R36   R(24,27)                1.0817         estimate D2E/DX2                !
 ! R37   R(25,26)                1.4289         estimate D2E/DX2                !
 ! R38   R(25,28)                1.0819         estimate D2E/DX2                !
 ! R39   R(26,31)                1.4099         estimate D2E/DX2                !
 ! R40   R(29,30)                1.0818         estimate D2E/DX2                !
 ! R41   R(29,31)                1.3754         estimate D2E/DX2                !
 ! R42   R(31,32)                1.0818         estimate D2E/DX2                !
 ! R43   R(33,34)                1.3594         estimate D2E/DX2                !
 ! R44   R(33,37)                1.0817         estimate D2E/DX2                !
 ! R45   R(34,35)                1.0819         estimate D2E/DX2                !
 ! R46   R(34,36)                1.4289         estimate D2E/DX2                !
 ! R47   R(36,38)                1.4099         estimate D2E/DX2                !
 ! R48   R(38,39)                1.0818         estimate D2E/DX2                !
 ! R49   R(38,44)                1.3754         estimate D2E/DX2                !
 ! R50   R(40,42)                1.4289         estimate D2E/DX2                !
 ! R51   R(40,44)                1.4099         estimate D2E/DX2                !
 ! R52   R(41,42)                1.3594         estimate D2E/DX2                !
 ! R53   R(41,46)                1.0817         estimate D2E/DX2                !
 ! R54   R(42,43)                1.0819         estimate D2E/DX2                !
 ! R55   R(44,45)                1.0818         estimate D2E/DX2                !
 ! A1    A(2,1,6)              119.979          estimate D2E/DX2                !
 ! A2    A(2,1,40)             120.0895         estimate D2E/DX2                !
 ! A3    A(6,1,40)             119.9314         estimate D2E/DX2                !
 ! A4    A(1,2,3)              120.0235         estimate D2E/DX2                !
 ! A5    A(1,2,20)             120.1298         estimate D2E/DX2                !
 ! A6    A(3,2,20)             119.8468         estimate D2E/DX2                !
 ! A7    A(2,3,4)              119.9975         estimate D2E/DX2                !
 ! A8    A(2,3,7)              120.005          estimate D2E/DX2                !
 ! A9    A(4,3,7)              119.9975         estimate D2E/DX2                !
 ! A10   A(3,4,5)              119.9975         estimate D2E/DX2                !
 ! A11   A(3,4,8)              119.9975         estimate D2E/DX2                !
 ! A12   A(5,4,8)              120.005          estimate D2E/DX2                !
 ! A13   A(4,5,6)              120.0235         estimate D2E/DX2                !
 ! A14   A(4,5,16)             119.8468         estimate D2E/DX2                !
 ! A15   A(6,5,16)             120.1298         estimate D2E/DX2                !
 ! A16   A(1,6,5)              119.979          estimate D2E/DX2                !
 ! A17   A(1,6,36)             119.9314         estimate D2E/DX2                !
 ! A18   A(5,6,36)             120.0895         estimate D2E/DX2                !
 ! A19   A(3,7,10)             120.0235         estimate D2E/DX2                !
 ! A20   A(3,7,22)             119.8468         estimate D2E/DX2                !
 ! A21   A(10,7,22)            120.1298         estimate D2E/DX2                !
 ! A22   A(4,8,9)              120.0235         estimate D2E/DX2                !
 ! A23   A(4,8,14)             119.8468         estimate D2E/DX2                !
 ! A24   A(9,8,14)             120.1298         estimate D2E/DX2                !
 ! A25   A(8,9,10)             119.979          estimate D2E/DX2                !
 ! A26   A(8,9,11)             120.0895         estimate D2E/DX2                !
 ! A27   A(10,9,11)            119.9314         estimate D2E/DX2                !
 ! A28   A(7,10,9)             119.979          estimate D2E/DX2                !
 ! A29   A(7,10,26)            120.0895         estimate D2E/DX2                !
 ! A30   A(9,10,26)            119.9314         estimate D2E/DX2                !
 ! A31   A(9,11,12)            118.6888         estimate D2E/DX2                !
 ! A32   A(9,11,29)            118.8789         estimate D2E/DX2                !
 ! A33   A(12,11,29)           122.4322         estimate D2E/DX2                !
 ! A34   A(11,12,13)           121.443          estimate D2E/DX2                !
 ! A35   A(11,12,18)           118.3787         estimate D2E/DX2                !
 ! A36   A(13,12,18)           120.1783         estimate D2E/DX2                !
 ! A37   A(12,13,14)           121.3384         estimate D2E/DX2                !
 ! A38   A(12,13,19)           120.2766         estimate D2E/DX2                !
 ! A39   A(14,13,19)           118.385          estimate D2E/DX2                !
 ! A40   A(8,14,13)            118.3104         estimate D2E/DX2                !
 ! A41   A(8,14,15)            119.2691         estimate D2E/DX2                !
 ! A42   A(13,14,15)           122.4204         estimate D2E/DX2                !
 ! A43   A(14,15,16)           121.7632         estimate D2E/DX2                !
 ! A44   A(14,15,17)           119.1184         estimate D2E/DX2                !
 ! A45   A(16,15,17)           119.1184         estimate D2E/DX2                !
 ! A46   A(5,16,15)            119.2691         estimate D2E/DX2                !
 ! A47   A(5,16,33)            118.3104         estimate D2E/DX2                !
 ! A48   A(15,16,33)           122.4204         estimate D2E/DX2                !
 ! A49   A(2,20,21)            119.2691         estimate D2E/DX2                !
 ! A50   A(2,20,41)            118.3104         estimate D2E/DX2                !
 ! A51   A(21,20,41)           122.4204         estimate D2E/DX2                !
 ! A52   A(20,21,22)           121.7632         estimate D2E/DX2                !
 ! A53   A(20,21,23)           119.1184         estimate D2E/DX2                !
 ! A54   A(22,21,23)           119.1184         estimate D2E/DX2                !
 ! A55   A(7,22,21)            119.2691         estimate D2E/DX2                !
 ! A56   A(7,22,24)            118.3104         estimate D2E/DX2                !
 ! A57   A(21,22,24)           122.4204         estimate D2E/DX2                !
 ! A58   A(22,24,25)           121.3384         estimate D2E/DX2                !
 ! A59   A(22,24,27)           118.385          estimate D2E/DX2                !
 ! A60   A(25,24,27)           120.2766         estimate D2E/DX2                !
 ! A61   A(24,25,26)           121.443          estimate D2E/DX2                !
 ! A62   A(24,25,28)           120.1783         estimate D2E/DX2                !
 ! A63   A(26,25,28)           118.3787         estimate D2E/DX2                !
 ! A64   A(10,26,25)           118.6888         estimate D2E/DX2                !
 ! A65   A(10,26,31)           118.8789         estimate D2E/DX2                !
 ! A66   A(25,26,31)           122.4322         estimate D2E/DX2                !
 ! A67   A(11,29,30)           118.8137         estimate D2E/DX2                !
 ! A68   A(11,29,31)           121.1896         estimate D2E/DX2                !
 ! A69   A(30,29,31)           119.9967         estimate D2E/DX2                !
 ! A70   A(26,31,29)           121.1896         estimate D2E/DX2                !
 ! A71   A(26,31,32)           118.8137         estimate D2E/DX2                !
 ! A72   A(29,31,32)           119.9967         estimate D2E/DX2                !
 ! A73   A(16,33,34)           121.3384         estimate D2E/DX2                !
 ! A74   A(16,33,37)           118.385          estimate D2E/DX2                !
 ! A75   A(34,33,37)           120.2766         estimate D2E/DX2                !
 ! A76   A(33,34,35)           120.1783         estimate D2E/DX2                !
 ! A77   A(33,34,36)           121.443          estimate D2E/DX2                !
 ! A78   A(35,34,36)           118.3787         estimate D2E/DX2                !
 ! A79   A(6,36,34)            118.6888         estimate D2E/DX2                !
 ! A80   A(6,36,38)            118.8789         estimate D2E/DX2                !
 ! A81   A(34,36,38)           122.4322         estimate D2E/DX2                !
 ! A82   A(36,38,39)           118.8137         estimate D2E/DX2                !
 ! A83   A(36,38,44)           121.1896         estimate D2E/DX2                !
 ! A84   A(39,38,44)           119.9967         estimate D2E/DX2                !
 ! A85   A(1,40,42)            118.6888         estimate D2E/DX2                !
 ! A86   A(1,40,44)            118.8789         estimate D2E/DX2                !
 ! A87   A(42,40,44)           122.4322         estimate D2E/DX2                !
 ! A88   A(20,41,42)           121.3384         estimate D2E/DX2                !
 ! A89   A(20,41,46)           118.385          estimate D2E/DX2                !
 ! A90   A(42,41,46)           120.2766         estimate D2E/DX2                !
 ! A91   A(40,42,41)           121.443          estimate D2E/DX2                !
 ! A92   A(40,42,43)           118.3787         estimate D2E/DX2                !
 ! A93   A(41,42,43)           120.1783         estimate D2E/DX2                !
 ! A94   A(38,44,40)           121.1896         estimate D2E/DX2                !
 ! A95   A(38,44,45)           119.9967         estimate D2E/DX2                !
 ! A96   A(40,44,45)           118.8137         estimate D2E/DX2                !
 ! D1    D(6,1,2,3)              0.0            estimate D2E/DX2                !
 ! D2    D(6,1,2,20)           180.0            estimate D2E/DX2                !
 ! D3    D(40,1,2,3)           180.0            estimate D2E/DX2                !
 ! D4    D(40,1,2,20)            0.0            estimate D2E/DX2                !
 ! D5    D(2,1,6,5)              0.0            estimate D2E/DX2                !
 ! D6    D(2,1,6,36)           180.0            estimate D2E/DX2                !
 ! D7    D(40,1,6,5)           180.0            estimate D2E/DX2                !
 ! D8    D(40,1,6,36)            0.0            estimate D2E/DX2                !
 ! D9    D(2,1,40,42)            0.0            estimate D2E/DX2                !
 ! D10   D(2,1,40,44)          180.0            estimate D2E/DX2                !
 ! D11   D(6,1,40,42)          180.0            estimate D2E/DX2                !
 ! D12   D(6,1,40,44)            0.0            estimate D2E/DX2                !
 ! D13   D(1,2,3,4)              0.0            estimate D2E/DX2                !
 ! D14   D(1,2,3,7)            180.0            estimate D2E/DX2                !
 ! D15   D(20,2,3,4)           180.0            estimate D2E/DX2                !
 ! D16   D(20,2,3,7)             0.0            estimate D2E/DX2                !
 ! D17   D(1,2,20,21)          180.0            estimate D2E/DX2                !
 ! D18   D(1,2,20,41)            0.0            estimate D2E/DX2                !
 ! D19   D(3,2,20,21)            0.0            estimate D2E/DX2                !
 ! D20   D(3,2,20,41)          180.0            estimate D2E/DX2                !
 ! D21   D(2,3,4,5)              0.0            estimate D2E/DX2                !
 ! D22   D(2,3,4,8)            180.0            estimate D2E/DX2                !
 ! D23   D(7,3,4,5)            180.0            estimate D2E/DX2                !
 ! D24   D(7,3,4,8)              0.0            estimate D2E/DX2                !
 ! D25   D(2,3,7,10)           180.0            estimate D2E/DX2                !
 ! D26   D(2,3,7,22)             0.0            estimate D2E/DX2                !
 ! D27   D(4,3,7,10)             0.0            estimate D2E/DX2                !
 ! D28   D(4,3,7,22)           180.0            estimate D2E/DX2                !
 ! D29   D(3,4,5,6)              0.0            estimate D2E/DX2                !
 ! D30   D(3,4,5,16)           180.0            estimate D2E/DX2                !
 ! D31   D(8,4,5,6)            180.0            estimate D2E/DX2                !
 ! D32   D(8,4,5,16)             0.0            estimate D2E/DX2                !
 ! D33   D(3,4,8,9)              0.0            estimate D2E/DX2                !
 ! D34   D(3,4,8,14)           180.0            estimate D2E/DX2                !
 ! D35   D(5,4,8,9)            180.0            estimate D2E/DX2                !
 ! D36   D(5,4,8,14)             0.0            estimate D2E/DX2                !
 ! D37   D(4,5,6,1)              0.0            estimate D2E/DX2                !
 ! D38   D(4,5,6,36)           180.0            estimate D2E/DX2                !
 ! D39   D(16,5,6,1)           180.0            estimate D2E/DX2                !
 ! D40   D(16,5,6,36)            0.0            estimate D2E/DX2                !
 ! D41   D(4,5,16,15)            0.0            estimate D2E/DX2                !
 ! D42   D(4,5,16,33)          180.0            estimate D2E/DX2                !
 ! D43   D(6,5,16,15)          180.0            estimate D2E/DX2                !
 ! D44   D(6,5,16,33)            0.0            estimate D2E/DX2                !
 ! D45   D(1,6,36,34)          180.0            estimate D2E/DX2                !
 ! D46   D(1,6,36,38)            0.0            estimate D2E/DX2                !
 ! D47   D(5,6,36,34)            0.0            estimate D2E/DX2                !
 ! D48   D(5,6,36,38)          180.0            estimate D2E/DX2                !
 ! D49   D(3,7,10,9)             0.0            estimate D2E/DX2                !
 ! D50   D(3,7,10,26)          180.0            estimate D2E/DX2                !
 ! D51   D(22,7,10,9)          180.0            estimate D2E/DX2                !
 ! D52   D(22,7,10,26)           0.0            estimate D2E/DX2                !
 ! D53   D(3,7,22,21)            0.0            estimate D2E/DX2                !
 ! D54   D(3,7,22,24)          180.0            estimate D2E/DX2                !
 ! D55   D(10,7,22,21)         180.0            estimate D2E/DX2                !
 ! D56   D(10,7,22,24)           0.0            estimate D2E/DX2                !
 ! D57   D(4,8,9,10)             0.0            estimate D2E/DX2                !
 ! D58   D(4,8,9,11)           180.0            estimate D2E/DX2                !
 ! D59   D(14,8,9,10)          180.0            estimate D2E/DX2                !
 ! D60   D(14,8,9,11)            0.0            estimate D2E/DX2                !
 ! D61   D(4,8,14,13)          180.0            estimate D2E/DX2                !
 ! D62   D(4,8,14,15)            0.0            estimate D2E/DX2                !
 ! D63   D(9,8,14,13)            0.0            estimate D2E/DX2                !
 ! D64   D(9,8,14,15)          180.0            estimate D2E/DX2                !
 ! D65   D(8,9,10,7)             0.0            estimate D2E/DX2                !
 ! D66   D(8,9,10,26)          180.0            estimate D2E/DX2                !
 ! D67   D(11,9,10,7)          180.0            estimate D2E/DX2                !
 ! D68   D(11,9,10,26)           0.0            estimate D2E/DX2                !
 ! D69   D(8,9,11,12)            0.0            estimate D2E/DX2                !
 ! D70   D(8,9,11,29)          180.0            estimate D2E/DX2                !
 ! D71   D(10,9,11,12)         180.0            estimate D2E/DX2                !
 ! D72   D(10,9,11,29)           0.0            estimate D2E/DX2                !
 ! D73   D(7,10,26,25)           0.0            estimate D2E/DX2                !
 ! D74   D(7,10,26,31)         180.0            estimate D2E/DX2                !
 ! D75   D(9,10,26,25)         180.0            estimate D2E/DX2                !
 ! D76   D(9,10,26,31)           0.0            estimate D2E/DX2                !
 ! D77   D(9,11,12,13)           0.0            estimate D2E/DX2                !
 ! D78   D(9,11,12,18)         180.0            estimate D2E/DX2                !
 ! D79   D(29,11,12,13)        180.0            estimate D2E/DX2                !
 ! D80   D(29,11,12,18)          0.0            estimate D2E/DX2                !
 ! D81   D(9,11,29,30)         180.0            estimate D2E/DX2                !
 ! D82   D(9,11,29,31)           0.0            estimate D2E/DX2                !
 ! D83   D(12,11,29,30)          0.0            estimate D2E/DX2                !
 ! D84   D(12,11,29,31)        180.0            estimate D2E/DX2                !
 ! D85   D(11,12,13,14)          0.0            estimate D2E/DX2                !
 ! D86   D(11,12,13,19)        180.0            estimate D2E/DX2                !
 ! D87   D(18,12,13,14)        180.0            estimate D2E/DX2                !
 ! D88   D(18,12,13,19)          0.0            estimate D2E/DX2                !
 ! D89   D(12,13,14,8)           0.0            estimate D2E/DX2                !
 ! D90   D(12,13,14,15)        180.0            estimate D2E/DX2                !
 ! D91   D(19,13,14,8)         180.0            estimate D2E/DX2                !
 ! D92   D(19,13,14,15)          0.0            estimate D2E/DX2                !
 ! D93   D(8,14,15,16)           0.0            estimate D2E/DX2                !
 ! D94   D(8,14,15,17)         180.0            estimate D2E/DX2                !
 ! D95   D(13,14,15,16)        180.0            estimate D2E/DX2                !
 ! D96   D(13,14,15,17)          0.0            estimate D2E/DX2                !
 ! D97   D(14,15,16,5)           0.0            estimate D2E/DX2                !
 ! D98   D(14,15,16,33)        180.0            estimate D2E/DX2                !
 ! D99   D(17,15,16,5)         180.0            estimate D2E/DX2                !
 ! D100  D(17,15,16,33)          0.0            estimate D2E/DX2                !
 ! D101  D(5,16,33,34)           0.0            estimate D2E/DX2                !
 ! D102  D(5,16,33,37)         180.0            estimate D2E/DX2                !
 ! D103  D(15,16,33,34)        180.0            estimate D2E/DX2                !
 ! D104  D(15,16,33,37)          0.0            estimate D2E/DX2                !
 ! D105  D(2,20,21,22)           0.0            estimate D2E/DX2                !
 ! D106  D(2,20,21,23)         180.0            estimate D2E/DX2                !
 ! D107  D(41,20,21,22)        180.0            estimate D2E/DX2                !
 ! D108  D(41,20,21,23)          0.0            estimate D2E/DX2                !
 ! D109  D(2,20,41,42)           0.0            estimate D2E/DX2                !
 ! D110  D(2,20,41,46)         180.0            estimate D2E/DX2                !
 ! D111  D(21,20,41,42)        180.0            estimate D2E/DX2                !
 ! D112  D(21,20,41,46)          0.0            estimate D2E/DX2                !
 ! D113  D(20,21,22,7)           0.0            estimate D2E/DX2                !
 ! D114  D(20,21,22,24)        180.0            estimate D2E/DX2                !
 ! D115  D(23,21,22,7)         180.0            estimate D2E/DX2                !
 ! D116  D(23,21,22,24)          0.0            estimate D2E/DX2                !
 ! D117  D(7,22,24,25)           0.0            estimate D2E/DX2                !
 ! D118  D(7,22,24,27)         180.0            estimate D2E/DX2                !
 ! D119  D(21,22,24,25)        180.0            estimate D2E/DX2                !
 ! D120  D(21,22,24,27)          0.0            estimate D2E/DX2                !
 ! D121  D(22,24,25,26)          0.0            estimate D2E/DX2                !
 ! D122  D(22,24,25,28)        180.0            estimate D2E/DX2                !
 ! D123  D(27,24,25,26)        180.0            estimate D2E/DX2                !
 ! D124  D(27,24,25,28)          0.0            estimate D2E/DX2                !
 ! D125  D(24,25,26,10)          0.0            estimate D2E/DX2                !
 ! D126  D(24,25,26,31)        180.0            estimate D2E/DX2                !
 ! D127  D(28,25,26,10)        180.0            estimate D2E/DX2                !
 ! D128  D(28,25,26,31)          0.0            estimate D2E/DX2                !
 ! D129  D(10,26,31,29)          0.0            estimate D2E/DX2                !
 ! D130  D(10,26,31,32)        180.0            estimate D2E/DX2                !
 ! D131  D(25,26,31,29)        180.0            estimate D2E/DX2                !
 ! D132  D(25,26,31,32)          0.0            estimate D2E/DX2                !
 ! D133  D(11,29,31,26)          0.0            estimate D2E/DX2                !
 ! D134  D(11,29,31,32)        180.0            estimate D2E/DX2                !
 ! D135  D(30,29,31,26)        180.0            estimate D2E/DX2                !
 ! D136  D(30,29,31,32)          0.0            estimate D2E/DX2                !
 ! D137  D(16,33,34,35)        180.0            estimate D2E/DX2                !
 ! D138  D(16,33,34,36)          0.0            estimate D2E/DX2                !
 ! D139  D(37,33,34,35)          0.0            estimate D2E/DX2                !
 ! D140  D(37,33,34,36)        180.0            estimate D2E/DX2                !
 ! D141  D(33,34,36,6)           0.0            estimate D2E/DX2                !
 ! D142  D(33,34,36,38)        180.0            estimate D2E/DX2                !
 ! D143  D(35,34,36,6)         180.0            estimate D2E/DX2                !
 ! D144  D(35,34,36,38)          0.0            estimate D2E/DX2                !
 ! D145  D(6,36,38,39)         180.0            estimate D2E/DX2                !
 ! D146  D(6,36,38,44)           0.0            estimate D2E/DX2                !
 ! D147  D(34,36,38,39)          0.0            estimate D2E/DX2                !
 ! D148  D(34,36,38,44)        180.0            estimate D2E/DX2                !
 ! D149  D(36,38,44,40)          0.0            estimate D2E/DX2                !
 ! D150  D(36,38,44,45)        180.0            estimate D2E/DX2                !
 ! D151  D(39,38,44,40)        180.0            estimate D2E/DX2                !
 ! D152  D(39,38,44,45)          0.0            estimate D2E/DX2                !
 ! D153  D(1,40,42,41)           0.0            estimate D2E/DX2                !
 ! D154  D(1,40,42,43)         180.0            estimate D2E/DX2                !
 ! D155  D(44,40,42,41)        180.0            estimate D2E/DX2                !
 ! D156  D(44,40,42,43)          0.0            estimate D2E/DX2                !
 ! D157  D(1,40,44,38)           0.0            estimate D2E/DX2                !
 ! D158  D(1,40,44,45)         180.0            estimate D2E/DX2                !
 ! D159  D(42,40,44,38)        180.0            estimate D2E/DX2                !
 ! D160  D(42,40,44,45)          0.0            estimate D2E/DX2                !
 ! D161  D(20,41,42,40)          0.0            estimate D2E/DX2                !
 ! D162  D(20,41,42,43)        180.0            estimate D2E/DX2                !
 ! D163  D(46,41,42,40)        180.0            estimate D2E/DX2                !
 ! D164  D(46,41,42,43)          0.0            estimate D2E/DX2                !
 --------------------------------------------------------------------------------
 NAtoms=     46 NQM=       46 NQMF=       0 NMMI=      0 NMMIF=      0
                NMic=       0 NMicF=      0.
                    Isotopes and Nuclear Properties:
 (Nuclear quadrupole moments (NQMom) in fm**2, nuclear magnetic moments (NMagM)
  in nuclear magnetons)

  Atom         1           2           3           4           5           6           7           8           9          10
 IAtWgt=          12          12          12          12          12          12          12          12          12          12
 AtmWgt=  12.0000000  12.0000000  12.0000000  12.0000000  12.0000000  12.0000000  12.0000000  12.0000000  12.0000000  12.0000000
 NucSpn=           0           0           0           0           0           0           0           0           0           0
 AtZEff=   3.6000000   3.6000000   3.6000000   3.6000000   3.6000000   3.6000000   3.6000000   3.6000000   3.6000000   3.6000000
 NQMom=    0.0000000   0.0000000   0.0000000   0.0000000   0.0000000   0.0000000   0.0000000   0.0000000   0.0000000   0.0000000
 NMagM=    0.0000000   0.0000000   0.0000000   0.0000000   0.0000000   0.0000000   0.0000000   0.0000000   0.0000000   0.0000000
 AtZNuc=   6.0000000   6.0000000   6.0000000   6.0000000   6.0000000   6.0000000   6.0000000   6.0000000   6.0000000   6.0000000

  Atom        11          12          13          14          15          16          17          18          19          20
 IAtWgt=          12          12          12          12          12          12           1           1           1          12
 AtmWgt=  12.0000000  12.0000000  12.0000000  12.0000000  12.0000000  12.0000000   1.0078250   1.0078250   1.0078250  12.0000000
 NucSpn=           0           0           0           0           0           0           1           1           1           0
 AtZEff=   3.6000000   3.6000000   3.6000000   3.6000000   3.6000000   3.6000000   1.0000000   1.0000000   1.0000000   3.6000000
 NQMom=    0.0000000   0.0000000   0.0000000   0.0000000   0.0000000   0.0000000   0.0000000   0.0000000   0.0000000   0.0000000
 NMagM=    0.0000000   0.0000000   0.0000000   0.0000000   0.0000000   0.0000000   2.7928460   2.7928460   2.7928460   0.0000000
 AtZNuc=   6.0000000   6.0000000   6.0000000   6.0000000   6.0000000   6.0000000   1.0000000   1.0000000   1.0000000   6.0000000

  Atom        21          22          23          24          25          26          27          28          29          30
 IAtWgt=          12          12           1          12          12          12           1           1          12           1
 AtmWgt=  12.0000000  12.0000000   1.0078250  12.0000000  12.0000000  12.0000000   1.0078250   1.0078250  12.0000000   1.0078250
 NucSpn=           0           0           1           0           0           0           1           1           0           1
 AtZEff=   3.6000000   3.6000000   1.0000000   3.6000000   3.6000000   3.6000000   1.0000000   1.0000000   3.6000000   1.0000000
 NQMom=    0.0000000   0.0000000   0.0000000   0.0000000   0.0000000   0.0000000   0.0000000   0.0000000   0.0000000   0.0000000
 NMagM=    0.0000000   0.0000000   2.7928460   0.0000000   0.0000000   0.0000000   2.7928460   2.7928460   0.0000000   2.7928460
 AtZNuc=   6.0000000   6.0000000   1.0000000   6.0000000   6.0000000   6.0000000   1.0000000   1.0000000   6.0000000   1.0000000

  Atom        31          32          33          34          35          36          37          38          39          40
 IAtWgt=          12           1          12          12           1          12           1          12           1          12
 AtmWgt=  12.0000000   1.0078250  12.0000000  12.0000000   1.0078250  12.0000000   1.0078250  12.0000000   1.0078250  12.0000000
 NucSpn=           0           1           0           0           1           0           1           0           1           0
 AtZEff=   3.6000000   1.0000000   3.6000000   3.6000000   1.0000000   3.6000000   1.0000000   3.6000000   1.0000000   3.6000000
 NQMom=    0.0000000   0.0000000   0.0000000   0.0000000   0.0000000   0.0000000   0.0000000   0.0000000   0.0000000   0.0000000
 NMagM=    0.0000000   2.7928460   0.0000000   0.0000000   2.7928460   0.0000000   2.7928460   0.0000000   2.7928460   0.0000000
 AtZNuc=   6.0000000   1.0000000   6.0000000   6.0000000   1.0000000   6.0000000   1.0000000   6.0000000   1.0000000   6.0000000

  Atom        41          42          43          44          45          46
 IAtWgt=          12          12           1          12           1           1
 AtmWgt=  12.0000000  12.0000000   1.0078250  12.0000000   1.0078250   1.0078250
 NucSpn=           0           0           1           0           1           1
 AtZEff=   3.6000000   3.6000000   1.0000000   3.6000000   1.0000000   1.0000000
 NQMom=    0.0000000   0.0000000   0.0000000   0.0000000   0.0000000   0.0000000
 NMagM=    0.0000000   0.0000000   2.7928460   0.0000000   2.7928460   2.7928460
 AtZNuc=   6.0000000   6.0000000   1.0000000   6.0000000   1.0000000   1.0000000
 Leave Link  101 at Wed Mar  1 22:13:12 2023, MaxMem=  2013265920 cpu:               1.0 elap:               0.4
 (Enter /opt//g16/l202.exe)
                          Input orientation:                          
 ---------------------------------------------------------------------
 Center     Atomic      Atomic             Coordinates (Angstroms)
 Number     Number       Type             X           Y           Z
 ---------------------------------------------------------------------
      1          6           0       -0.000000    0.710889    2.455602
      2          6           0        0.000000    1.421565    1.223632
      3          6           0        0.000000    0.715172   -0.000000
      4          6           0       -0.000000   -0.715172   -0.000000
      5          6           0       -0.000000   -1.421565    1.223632
      6          6           0       -0.000000   -0.710889    2.455602
      7          6           0        0.000000    1.421565   -1.223632
      8          6           0       -0.000000   -1.421565   -1.223632
      9          6           0        0.000000   -0.710889   -2.455602
     10          6           0        0.000000    0.710889   -2.455602
     11          6           0        0.000000   -1.417883   -3.683542
     12          6           0       -0.000000   -2.846432   -3.652555
     13          6           0       -0.000000   -3.530252   -2.477652
     14          6           0       -0.000000   -2.848439   -1.219877
     15          6           0       -0.000000   -3.527927   -0.000000
     16          6           0       -0.000000   -2.848439    1.219877
     17          1           0       -0.000000   -4.610362   -0.000000
     18          1           0       -0.000000   -3.381164   -4.593038
     19          1           0       -0.000000   -4.611981   -2.476213
     20          6           0        0.000000    2.848439    1.219877
     21          6           0        0.000000    3.527927   -0.000000
     22          6           0        0.000000    2.848439   -1.219877
     23          1           0        0.000000    4.610362   -0.000000
     24          6           0        0.000000    3.530252   -2.477652
     25          6           0        0.000000    2.846432   -3.652555
     26          6           0        0.000000    1.417883   -3.683542
     27          1           0        0.000000    4.611981   -2.476213
     28          1           0        0.000000    3.381164   -4.593038
     29          6           0        0.000000   -0.687710   -4.889694
     30          1           0        0.000000   -1.228555   -5.826592
     31          6           0        0.000000    0.687710   -4.889694
     32          1           0        0.000000    1.228555   -5.826592
     33          6           0       -0.000000   -3.530252    2.477652
     34          6           0       -0.000000   -2.846432    3.652555
     35          1           0       -0.000000   -3.381164    4.593038
     36          6           0       -0.000000   -1.417883    3.683542
     37          1           0       -0.000000   -4.611981    2.476213
     38          6           0       -0.000000   -0.687710    4.889694
     39          1           0       -0.000000   -1.228555    5.826592
     40          6           0       -0.000000    1.417883    3.683542
     41          6           0        0.000000    3.530252    2.477652
     42          6           0        0.000000    2.846432    3.652555
     43          1           0        0.000000    3.381164    4.593038
     44          6           0       -0.000000    0.687710    4.889694
     45          1           0       -0.000000    1.228555    5.826592
     46          1           0        0.000000    4.611981    2.476213
 ---------------------------------------------------------------------
                    Distance matrix (angstroms):
                    1          2          3          4          5
     1  C    0.000000
     2  C    1.422256   0.000000
     3  C    2.455606   1.412893   0.000000
     4  C    2.839653   2.462300   1.430344   0.000000
     5  C    2.462745   2.843131   2.462300   1.412893   0.000000
     6  C    1.421778   2.462745   2.839653   2.455606   1.422256
     7  C    3.747242   2.447264   1.412893   2.462300   3.751332
     8  C    4.252543   3.751332   2.462300   1.412893   2.447264
     9  C    5.112864   4.252543   2.839653   2.455606   3.747242
    10  C    4.911204   3.747242   2.455606   2.839653   4.252543
    11  C    6.497750   5.669463   4.256571   3.749971   4.907175
    12  C    7.068529   6.480200   5.101586   4.228880   5.080102
    13  C    6.505711   6.182233   4.915525   3.750125   4.259820
    14  C    5.116441   4.919723   3.766620   2.457424   2.829612
    15  C    4.898729   5.098505   4.243099   2.812755   2.435987
    16  C    3.767735   4.270006   3.766620   2.457424   1.426879
    17  H    5.860519   6.154788   5.325534   3.895190   3.415508
    18  H    8.150351   7.543200   6.154346   5.310698   6.137889
    19  H    7.256428   7.077608   5.874538   4.617007   4.885448
    20  C    2.469036   1.426879   2.457424   3.766620   4.270006
    21  C    3.737069   2.435987   2.812755   4.243099   5.098505
    22  C    4.251855   2.829612   2.457424   3.766620   4.919723
    23  H    4.608239   3.415508   3.895190   5.325534   6.154788
    24  C    5.682060   4.259820   3.750125   4.915525   6.182233
    25  C    6.470713   5.080102   4.228880   5.101586   6.480200
    26  C    6.179719   4.907175   3.749971   4.256571   5.669463
    27  H    6.288189   4.885448   4.617007   5.874538   7.077608
    28  H    7.537486   6.137889   5.310698   6.154346   7.543200
    29  C    7.477262   6.466977   5.086962   4.889771   6.157215
    30  H    8.506244   7.531852   6.142252   5.849166   7.052866
    31  C    7.345332   6.157215   4.889771   5.086962   6.466977
    32  H    8.298357   7.052866   5.849166   6.142252   7.531852
    33  C    4.241199   5.108137   4.915525   3.750125   2.453391
    34  C    3.753296   4.910750   5.101586   4.228880   2.816010
    35  H    4.616658   5.866780   6.154346   5.310698   3.897811
    36  C    2.457540   3.756810   4.256571   3.749971   2.459913
    37  H    5.322910   6.162195   5.874538   4.617007   3.427494
    38  C    2.807291   4.229545   5.086962   4.889771   3.738791
    39  H    3.889090   5.311345   6.142252   5.849166   4.607006
    40  C    1.416925   2.459913   3.749971   4.256571   3.756810
    41  C    2.819450   2.453391   3.750125   4.915525   5.108137
    42  C    2.448110   2.816010   4.228880   5.101586   4.910750
    43  H    3.420381   3.897811   5.310698   6.154346   5.866780
    44  C    2.434202   3.738791   4.889771   5.086962   4.229545
    45  H    3.410507   4.607006   5.849166   6.142252   5.311345
    46  H    3.901147   3.427494   4.617007   5.874538   6.162195
                    6          7          8          9         10
     6  C    0.000000
     7  C    4.252543   0.000000
     8  C    3.747242   2.843131   0.000000
     9  C    4.911204   2.462745   1.422256   0.000000
    10  C    5.112864   1.422256   2.462745   1.421778   0.000000
    11  C    6.179719   3.756810   2.459913   1.416925   2.457540
    12  C    6.470713   4.910750   2.816010   2.448110   3.753296
    13  C    5.682060   5.108137   2.453391   2.819450   4.241199
    14  C    4.251855   4.270006   1.426879   2.469036   3.767735
    15  C    3.737069   5.098505   2.435987   3.737069   4.898729
    16  C    2.469036   4.919723   2.829612   4.251855   5.116441
    17  H    4.608239   6.154788   3.415508   4.608239   5.860519
    18  H    7.537486   5.866780   3.897811   3.420381   4.616658
    19  H    6.288189   6.162195   3.427494   3.901147   5.322910
    20  C    3.767735   2.829612   4.919723   5.116441   4.251855
    21  C    4.898729   2.435987   5.098505   4.898729   3.737069
    22  C    5.116441   1.426879   4.270006   3.767735   2.469036
    23  H    5.860519   3.415508   6.154788   5.860519   4.608239
    24  C    6.505711   2.453391   5.108137   4.241199   2.819450
    25  C    7.068529   2.816010   4.910750   3.753296   2.448110
    26  C    6.497750   2.459913   3.756810   2.457540   1.416925
    27  H    7.256428   3.427494   6.162195   5.322910   3.901147
    28  H    8.150351   3.897811   5.866780   4.616658   3.420381
    29  C    7.345332   4.229545   3.738791   2.434202   2.807291
    30  H    8.298357   5.311345   4.607006   3.410507   3.889090
    31  C    7.477262   3.738791   4.229545   2.807291   2.434202
    32  H    8.506244   4.607006   5.311345   3.889090   3.410507
    33  C    2.819450   6.182233   4.259820   5.682060   6.505711
    34  C    2.448110   6.480200   5.080102   6.470713   7.068529
    35  H    3.420381   7.543200   6.137889   7.537486   8.150351
    36  C    1.416925   5.669463   4.907175   6.179719   6.497750
    37  H    3.901147   7.077608   4.885448   6.288189   7.256428
    38  C    2.434202   6.466977   6.157215   7.345332   7.477262
    39  H    3.410507   7.531852   7.052866   8.298357   8.506244
    40  C    2.457540   4.907175   5.669463   6.497750   6.179719
    41  C    4.241199   4.259820   6.182233   6.505711   5.682060
    42  C    3.753296   5.080102   6.480200   7.068529   6.470713
    43  H    4.616658   6.137889   7.543200   8.150351   7.537486
    44  C    2.807291   6.157215   6.466977   7.477262   7.345332
    45  H    3.889090   7.052866   7.531852   8.506244   8.298357
    46  H    5.322910   4.885448   7.077608   7.256428   6.288189
                   11         12         13         14         15
    11  C    0.000000
    12  C    1.428886   0.000000
    13  C    2.432340   1.359414   0.000000
    14  C    2.848883   2.432678   1.430687   0.000000
    15  C    4.245087   3.715587   2.477653   1.396354   0.000000
    16  C    5.107838   4.872432   3.759866   2.439755   1.396354
    17  H    4.874464   4.056181   2.702850   2.143005   1.082435
    18  H    2.163714   1.081873   2.120634   3.414969   4.595383
    19  H    3.414661   2.121543   1.081730   2.165285   2.703110
    20  C    6.499617   7.494808   7.372885   6.197324   6.492007
    21  C    6.166807   7.346674   7.480419   6.492007   7.055854
    22  C    4.926575   6.192696   6.501516   5.696878   6.492007
    23  H    7.064574   8.303308   8.509310   7.557897   8.138289
    24  C    5.092957   6.484019   7.060505   6.501516   7.480419
    25  C    4.264427   5.692864   6.484019   6.192696   7.346674
    26  C    2.835765   4.264427   5.092957   4.926575   6.166807
    27  H    6.149545   7.550610   8.142234   7.565464   8.508216
    28  H    4.884469   6.298211   7.227900   7.084220   8.296478
    29  C    1.409949   2.488091   3.728002   4.258674   5.654728
    30  H    2.151398   2.709976   4.063645   4.883221   6.263888
    31  C    2.426586   3.744419   4.858925   5.096264   6.456059
    32  H    3.405334   4.618654   5.819076   6.151724   7.521523
    33  C    6.513249   6.168229   4.955304   3.759866   2.477653
    34  C    7.473892   7.305109   6.168229   4.872432   3.715587
    35  H    8.506248   8.262914   7.072262   5.837276   4.595383
    36  C    7.367083   7.473892   6.513249   5.107838   4.245087
    37  H    6.938649   6.378006   5.070593   4.095261   2.703110
    38  C    8.604273   8.810794   7.896698   6.480402   5.654728
    39  H    9.512018   9.616223   8.617325   7.230267   6.263888
    40  C    7.894015   8.485440   7.902174   6.499617   6.166807
    41  C    7.902174   8.845425   8.625878   7.372885   7.480419
    42  C    8.485440   9.261389   8.845425   7.494808   7.346674
    43  H    9.567269  10.333091   9.887484   8.520443   8.296478
    44  C    8.828017   9.244467   8.489346   7.059123   6.456059
    45  H    9.871488  10.317933   9.571140   8.140923   7.521523
    46  H    8.619851   9.653482   9.530832   8.325801   8.508216
                   16         17         18         19         20
    16  C    0.000000
    17  H    2.143005   0.000000
    18  H    5.837276   4.754674   0.000000
    19  H    4.095261   2.476214   2.448645   0.000000
    20  C    5.696878   7.557897   8.520443   8.325801   0.000000
    21  C    6.492007   8.138289   8.296478   8.508216   1.396354
    22  C    6.197324   7.557897   7.084220   7.565464   2.439755
    23  H    7.557897   9.220724   9.217401   9.548992   2.143005
    24  C    7.372885   8.509310   7.227900   8.142234   3.759866
    25  C    7.494808   8.303308   6.298211   7.550610   4.872432
    26  C    6.499617   7.064574   4.884469   6.149545   5.107838
    27  H    8.325801   9.548992   8.268695   9.223963   4.095261
    28  H    8.520443   9.217401   6.762328   8.268695   5.837276
    29  C    6.480402   6.268677   2.709742   4.607038   7.059123
    30  H    7.230267   6.736898   2.481004   4.761577   8.140923
    31  C    7.059123   7.209623   4.079674   5.823368   6.480402
    32  H    8.140923   8.248765   4.771914   6.733269   7.230267
    33  C    1.430687   2.702850   7.072262   5.070593   6.501516
    34  C    2.432678   4.056181   8.262914   6.378006   6.192696
    35  H    3.414969   4.754674   9.186077   7.175599   7.084220
    36  C    2.848883   4.874464   8.506248   6.938649   4.926575
    37  H    2.165285   2.476214   7.175599   4.952426   7.565464
    38  C    4.258674   6.268677   9.857835   8.346047   5.096264
    39  H    4.883221   6.736898  10.639663   8.965721   6.151724
    40  C    4.926575   7.064574   9.567269   8.619851   2.848883
    41  C    6.501516   8.509310   9.887484   9.530832   1.430687
    42  C    6.192696   8.303308  10.333091   9.653482   2.432678
    43  H    7.084220   9.217401  11.406713  10.670740   3.414969
    44  C    5.096264   7.209623  10.318815   9.074321   4.258674
    45  H    6.151724   8.248765  11.393780  10.151278   4.883221
    46  H    7.565464   9.548992  10.670740  10.469384   2.165285
                   21         22         23         24         25
    21  C    0.000000
    22  C    1.396354   0.000000
    23  H    1.082435   2.143005   0.000000
    24  C    2.477653   1.430687   2.702850   0.000000
    25  C    3.715587   2.432678   4.056181   1.359414   0.000000
    26  C    4.245087   2.848883   4.874464   2.432340   1.428886
    27  H    2.703110   2.165285   2.476214   1.081730   2.121543
    28  H    4.595383   3.414969   4.754674   2.120634   1.081873
    29  C    6.456059   5.096264   7.209623   4.858925   3.744419
    30  H    7.521523   6.151724   8.248765   5.819076   4.618654
    31  C    5.654728   4.258674   6.268677   3.728002   2.488091
    32  H    6.263888   4.883221   6.736898   4.063645   2.709976
    33  C    7.480419   7.372885   8.509310   8.625878   8.845425
    34  C    7.346674   7.494808   8.303308   8.845425   9.261389
    35  H    8.296478   8.520443   9.217401   9.887484  10.333091
    36  C    6.166807   6.499617   7.064574   7.902174   8.485440
    37  H    8.508216   8.325801   9.548992   9.530832   9.653482
    38  C    6.456059   7.059123   7.209623   8.489346   9.244467
    39  H    7.521523   8.140923   8.248765   9.571140  10.317933
    40  C    4.245087   5.107838   4.874464   6.513249   7.473892
    41  C    2.477653   3.759866   2.702850   4.955304   6.168229
    42  C    3.715587   4.872432   4.056181   6.168229   7.305109
    43  H    4.595383   5.837276   4.754674   7.072262   8.262914
    44  C    5.654728   6.480402   6.268677   7.896698   8.810794
    45  H    6.263888   7.230267   6.736898   8.617325   9.616223
    46  H    2.703110   4.095261   2.476214   5.070593   6.378006
                   26         27         28         29         30
    26  C    0.000000
    27  H    3.414661   0.000000
    28  H    2.163714   2.448645   0.000000
    29  C    2.426586   5.823368   4.079674   0.000000
    30  H    3.405334   6.733269   4.771914   1.081801   0.000000
    31  C    1.409949   4.607038   2.709742   1.375419   2.133037
    32  H    2.151398   4.761577   2.481004   2.133037   2.457110
    33  C    7.902174   9.530832   9.887484   7.896698   8.617325
    34  C    8.485440   9.653482  10.333091   8.810794   9.616223
    35  H    9.567269  10.670740  11.406713   9.857835  10.639663
    36  C    7.894015   8.619851   9.567269   8.604273   9.512018
    37  H    8.619851  10.469384  10.670740   8.346047   8.965721
    38  C    8.828017   9.074321  10.318815   9.779388  10.729926
    39  H    9.871488  10.151278  11.393780  10.729926  11.653185
    40  C    7.367083   6.938649   8.506248   8.828017   9.871488
    41  C    6.513249   5.070593   7.072262   8.489346   9.571140
    42  C    7.473892   6.378006   8.262914   9.244467  10.317933
    43  H    8.506248   7.175599   9.186077  10.318815  11.393780
    44  C    8.604273   8.346047   9.857835   9.875637  10.886270
    45  H    9.512018   8.965721  10.639663  10.886270  11.909413
    46  H    6.938649   4.952426   7.175599   9.074321  10.151278
                   31         32         33         34         35
    31  C    0.000000
    32  H    1.081801   0.000000
    33  C    8.489346   9.571140   0.000000
    34  C    9.244467  10.317933   1.359414   0.000000
    35  H   10.318815  11.393780   2.120634   1.081873   0.000000
    36  C    8.828017   9.871488   2.432340   1.428886   2.163714
    37  H    9.074321  10.151278   1.081730   2.121543   2.448645
    38  C    9.875637  10.886270   3.728002   2.488091   2.709742
    39  H   10.886270  11.909413   4.063645   2.709976   2.481004
    40  C    8.604273   9.512018   5.092957   4.264427   4.884469
    41  C    7.896698   8.617325   7.060505   6.484019   7.227900
    42  C    8.810794   9.616223   6.484019   5.692864   6.298211
    43  H    9.857835  10.639663   7.227900   6.298211   6.762328
    44  C    9.779388  10.729926   4.858925   3.744419   4.079674
    45  H   10.729926  11.653185   5.819076   4.618654   4.771914
    46  H    8.346047   8.965721   8.142234   7.550610   8.268695
                   36         37         38         39         40
    36  C    0.000000
    37  H    3.414661   0.000000
    38  C    1.409949   4.607038   0.000000
    39  H    2.151398   4.761577   1.081801   0.000000
    40  C    2.835765   6.149545   2.426586   3.405334   0.000000
    41  C    5.092957   8.142234   4.858925   5.819076   2.432340
    42  C    4.264427   7.550610   3.744419   4.618654   1.428886
    43  H    4.884469   8.268695   4.079674   4.771914   2.163714
    44  C    2.426586   5.823368   1.375419   2.133037   1.409949
    45  H    3.405334   6.733269   2.133037   2.457110   2.151398
    46  H    6.149545   9.223963   5.823368   6.733269   3.414661
                   41         42         43         44         45
    41  C    0.000000
    42  C    1.359414   0.000000
    43  H    2.120634   1.081873   0.000000
    44  C    3.728002   2.488091   2.709742   0.000000
    45  H    4.063645   2.709976   2.481004   1.081801   0.000000
    46  H    1.081730   2.121543   2.448645   4.607038   4.761577
                   46
    46  H    0.000000
 Symmetry turned off by external request.
 Stoichiometry    C32H14
 Framework group  D2H[C2"(HCC.CCH),SG(C28H12)]
 Deg. of freedom    23
 Full point group                 D2H     NOp   8
 Rotational constants (GHZ):           0.2396555           0.1480609           0.0915195
 Leave Link  202 at Wed Mar  1 22:13:12 2023, MaxMem=  2013265920 cpu:               0.3 elap:               0.1
 (Enter /opt//g16/l716.exe)
 Electric field and nuclear coordinate derivatives read from checkpoint file.
 Dipole        =-1.56623658D-16 5.19038697D-13-4.68958206D-13
 Polarizability= 1.57948087D+02 4.14848017D-09 5.08622087D+02
                 2.67402859D-09-2.30929516D-07 6.30537681D+02
 Full mass-weighted force constant matrix:
 Low frequencies ---   -4.6156   -4.0635   -3.5036    0.0006    0.0007    0.0008
 Low frequencies ---   60.0653   60.9002  104.2624
 Diagonal vibrational polarizability:
       26.7525922       3.0082826       2.6905486
 Harmonic frequencies (cm**-1), IR intensities (KM/Mole), Raman scattering
 activities (A**4/AMU), depolarization ratios for plane and unpolarized
 incident light, reduced masses (AMU), force constants (mDyne/A),
 and normal coordinates:
                      1                      2                      3
                      A                      A                      A
 Frequencies --     60.0653                60.9002               104.2624
 Red. masses --      5.4573                 5.7241                 5.1369
 Frc consts  --      0.0116                 0.0125                 0.0329
 IR Inten    --      0.0000                 0.7010                 4.2390
  Atom  AN      X      Y      Z        X      Y      Z        X      Y      Z
     1   6     0.04   0.00   0.00    -0.01  -0.00   0.00     0.13  -0.00   0.00
     2   6     0.04   0.00   0.00    -0.10  -0.00  -0.00     0.12  -0.00   0.00
     3   6     0.00   0.00  -0.00    -0.12  -0.00  -0.00     0.18  -0.00   0.00
     4   6    -0.00  -0.00  -0.00    -0.12  -0.00   0.00     0.18  -0.00  -0.00
     5   6    -0.04  -0.00   0.00    -0.10  -0.00   0.00     0.12  -0.00  -0.00
     6   6    -0.04  -0.00   0.00    -0.01  -0.00  -0.00     0.13  -0.00  -0.00
     7   6    -0.04   0.00  -0.00    -0.10   0.00   0.00     0.12   0.00   0.00
     8   6     0.04  -0.00  -0.00    -0.10   0.00  -0.00     0.12   0.00  -0.00
     9   6     0.04  -0.00  -0.00    -0.01   0.00  -0.00     0.13   0.00  -0.00
    10   6    -0.04   0.00  -0.00    -0.01   0.00   0.00     0.13   0.00   0.00
    11   6     0.11  -0.00  -0.00     0.09   0.00   0.00     0.04  -0.00  -0.00
    12   6     0.20  -0.00  -0.00     0.06   0.00   0.00    -0.10   0.00  -0.00
    13   6     0.19   0.00   0.00    -0.05   0.00   0.00    -0.15   0.00  -0.00
    14   6     0.08  -0.00   0.00    -0.11   0.00   0.00    -0.04   0.00  -0.00
    15   6    -0.00  -0.00   0.00    -0.14  -0.00   0.00    -0.12  -0.00  -0.00
    16   6    -0.08  -0.00  -0.00    -0.11  -0.00   0.00    -0.04  -0.00  -0.00
    17   1    -0.00  -0.00   0.00    -0.15  -0.00  -0.00    -0.27  -0.00  -0.00
    18   1     0.28  -0.00   0.00     0.13   0.00   0.00    -0.19   0.00  -0.00
    19   1     0.24   0.00   0.00    -0.07   0.00   0.00    -0.29   0.00  -0.00
    20   6     0.08   0.00  -0.00    -0.11  -0.00  -0.00    -0.04  -0.00   0.00
    21   6     0.00   0.00   0.00    -0.14  -0.00  -0.00    -0.12  -0.00   0.00
    22   6    -0.08   0.00   0.00    -0.11   0.00  -0.00    -0.04   0.00   0.00
    23   1     0.00   0.00   0.00    -0.15  -0.00   0.00    -0.27  -0.00   0.00
    24   6    -0.19  -0.00   0.00    -0.05   0.00  -0.00    -0.15   0.00   0.00
    25   6    -0.20   0.00  -0.00     0.06   0.00  -0.00    -0.10   0.00   0.00
    26   6    -0.11   0.00  -0.00     0.09   0.00  -0.00     0.04  -0.00   0.00
    27   1    -0.24  -0.00   0.00    -0.07   0.00  -0.00    -0.29   0.00   0.00
    28   1    -0.28   0.00   0.00     0.13   0.00  -0.00    -0.19   0.00   0.00
    29   6     0.06  -0.00  -0.00     0.23   0.00  -0.00     0.02  -0.00  -0.00
    30   1     0.11   0.00  -0.00     0.33  -0.00   0.00    -0.02   0.00  -0.00
    31   6    -0.06   0.00  -0.00     0.23   0.00   0.00     0.02  -0.00   0.00
    32   1    -0.11  -0.00  -0.00     0.33  -0.00  -0.00    -0.02   0.00   0.00
    33   6    -0.19   0.00  -0.00    -0.05  -0.00   0.00    -0.15   0.00   0.00
    34   6    -0.20  -0.00   0.00     0.06  -0.00   0.00    -0.10   0.00   0.00
    35   1    -0.28  -0.00  -0.00     0.13  -0.00   0.00    -0.19   0.00   0.00
    36   6    -0.11  -0.00   0.00     0.09  -0.00   0.00     0.04   0.00   0.00
    37   1    -0.24   0.00  -0.00    -0.07  -0.00   0.00    -0.29   0.00   0.00
    38   6    -0.06  -0.00   0.00     0.23   0.00  -0.00     0.02   0.00  -0.00
    39   1    -0.11   0.00   0.00     0.33   0.00   0.00    -0.02   0.00  -0.00
    40   6     0.11   0.00   0.00     0.09  -0.00  -0.00     0.04   0.00  -0.00
    41   6     0.19  -0.00  -0.00    -0.05  -0.00  -0.00    -0.15   0.00  -0.00
    42   6     0.20   0.00   0.00     0.06  -0.00  -0.00    -0.10   0.00  -0.00
    43   1     0.28   0.00  -0.00     0.13  -0.00  -0.00    -0.19   0.00  -0.00
    44   6     0.06   0.00   0.00     0.23   0.00   0.00     0.02   0.00   0.00
    45   1     0.11  -0.00   0.00     0.33   0.00  -0.00    -0.02   0.00   0.00
    46   1     0.24  -0.00  -0.00    -0.07  -0.00  -0.00    -0.29   0.00  -0.00
                      4                      5                      6
                      A                      A                      A
 Frequencies --    125.3188               152.2104               193.2813
 Red. masses --      4.6985                 5.1840                 5.3302
 Frc consts  --      0.0435                 0.0708                 0.1173
 IR Inten    --      0.0000                 0.0000                 0.0000
  Atom  AN      X      Y      Z        X      Y      Z        X      Y      Z
     1   6     0.02   0.00   0.00     0.01  -0.00   0.00     0.23  -0.00  -0.00
     2   6     0.04  -0.00   0.00    -0.06   0.00   0.00     0.14   0.00   0.00
     3   6     0.00  -0.00   0.00    -0.05   0.00  -0.00    -0.00   0.00  -0.00
     4   6     0.00  -0.00  -0.00     0.05  -0.00  -0.00    -0.00   0.00   0.00
     5   6     0.04  -0.00  -0.00     0.06  -0.00   0.00     0.14   0.00  -0.00
     6   6     0.02   0.00  -0.00    -0.01   0.00   0.00     0.23  -0.00   0.00
     7   6    -0.04  -0.00   0.00    -0.06  -0.00  -0.00    -0.14   0.00  -0.00
     8   6    -0.04  -0.00  -0.00     0.06   0.00  -0.00    -0.14   0.00   0.00
     9   6    -0.02  -0.00   0.00    -0.01  -0.00  -0.00    -0.23  -0.00   0.00
    10   6    -0.02  -0.00  -0.00     0.01   0.00  -0.00    -0.23  -0.00  -0.00
    11   6     0.03   0.00   0.00    -0.11  -0.00  -0.00    -0.08  -0.00   0.00
    12   6    -0.10   0.00  -0.00    -0.18  -0.00  -0.00     0.08  -0.00   0.00
    13   6    -0.18   0.00  -0.00    -0.02  -0.00  -0.00     0.08   0.00   0.00
    14   6    -0.09  -0.00   0.00     0.13  -0.00  -0.00    -0.04   0.00   0.00
    15   6    -0.00  -0.00  -0.00     0.22   0.00   0.00    -0.00  -0.00   0.00
    16   6     0.09  -0.00  -0.00     0.13   0.00   0.00     0.04   0.00  -0.00
    17   1    -0.00  -0.00  -0.00     0.26   0.00   0.00    -0.00  -0.00   0.00
    18   1    -0.14   0.00  -0.00    -0.31   0.00  -0.00     0.23  -0.00   0.00
    19   1    -0.27   0.00  -0.00    -0.02  -0.00  -0.00     0.21   0.00   0.00
    20   6     0.09  -0.00   0.00    -0.13  -0.00   0.00     0.04   0.00   0.00
    21   6    -0.00  -0.00   0.00    -0.22  -0.00   0.00    -0.00  -0.00  -0.00
    22   6    -0.09  -0.00  -0.00    -0.13   0.00  -0.00    -0.04   0.00  -0.00
    23   1    -0.00  -0.00   0.00    -0.26  -0.00   0.00    -0.00  -0.00  -0.00
    24   6    -0.18   0.00   0.00     0.02   0.00  -0.00     0.08   0.00  -0.00
    25   6    -0.10   0.00   0.00     0.18   0.00  -0.00     0.08  -0.00  -0.00
    26   6     0.03   0.00  -0.00     0.11   0.00  -0.00    -0.08  -0.00  -0.00
    27   1    -0.27   0.00   0.00     0.02   0.00  -0.00     0.21   0.00  -0.00
    28   1    -0.14   0.00   0.00     0.31  -0.00  -0.00     0.23  -0.00  -0.00
    29   6     0.18   0.00   0.00    -0.08   0.00  -0.00     0.07  -0.00   0.00
    30   1     0.27  -0.00   0.00    -0.15  -0.00  -0.00     0.23  -0.00   0.00
    31   6     0.18   0.00  -0.00     0.08  -0.00  -0.00     0.07  -0.00  -0.00
    32   1     0.27  -0.00  -0.00     0.15   0.00  -0.00     0.23  -0.00  -0.00
    33   6     0.18   0.00   0.00    -0.02   0.00   0.00    -0.08   0.00  -0.00
    34   6     0.10   0.00   0.00    -0.18   0.00   0.00    -0.08  -0.00  -0.00
    35   1     0.14   0.00   0.00    -0.31   0.00   0.00    -0.23  -0.00  -0.00
    36   6    -0.03   0.00  -0.00    -0.11   0.00   0.00     0.08  -0.00  -0.00
    37   1     0.27   0.00   0.00    -0.02   0.00   0.00    -0.21   0.00  -0.00
    38   6    -0.18   0.00  -0.00    -0.08  -0.00   0.00    -0.07  -0.00  -0.00
    39   1    -0.27   0.00  -0.00    -0.15   0.00   0.00    -0.23  -0.00  -0.00
    40   6    -0.03   0.00   0.00     0.11  -0.00   0.00     0.08  -0.00   0.00
    41   6     0.18   0.00  -0.00     0.02  -0.00   0.00    -0.08   0.00   0.00
    42   6     0.10   0.00  -0.00     0.18  -0.00   0.00    -0.08  -0.00   0.00
    43   1     0.14   0.00  -0.00     0.31  -0.00   0.00    -0.23  -0.00   0.00
    44   6    -0.18   0.00   0.00     0.08   0.00   0.00    -0.07  -0.00   0.00
    45   1    -0.27   0.00   0.00     0.15  -0.00   0.00    -0.23  -0.00   0.00
    46   1     0.27   0.00  -0.00     0.02  -0.00   0.00    -0.21   0.00   0.00
                      7                      8                      9
                      A                      A                      A
 Frequencies --    211.8977               256.9073               270.0445
 Red. masses --      4.2907                 4.8109                 4.8120
 Frc consts  --      0.1135                 0.1871                 0.2067
 IR Inten    --      0.0037                 0.0000                 0.0000
  Atom  AN      X      Y      Z        X      Y      Z        X      Y      Z
     1   6    -0.06  -0.00   0.00    -0.04  -0.00   0.00     0.10  -0.00  -0.00
     2   6    -0.01  -0.00   0.00     0.01  -0.00   0.00     0.17   0.00   0.00
     3   6    -0.02   0.00  -0.00    -0.00  -0.00  -0.00     0.12   0.00   0.00
     4   6    -0.02   0.00   0.00     0.00   0.00  -0.00    -0.12  -0.00   0.00
     5   6    -0.01  -0.00  -0.00    -0.01   0.00   0.00    -0.17  -0.00   0.00
     6   6    -0.06  -0.00  -0.00     0.04   0.00   0.00    -0.10   0.00  -0.00
     7   6    -0.01   0.00  -0.00    -0.01  -0.00  -0.00     0.17  -0.00   0.00
     8   6    -0.01   0.00   0.00     0.01   0.00  -0.00    -0.17   0.00   0.00
     9   6    -0.06  -0.00  -0.00    -0.04  -0.00  -0.00    -0.10  -0.00  -0.00
    10   6    -0.06  -0.00   0.00     0.04   0.00  -0.00     0.10   0.00  -0.00
    11   6    -0.05  -0.00   0.00    -0.16   0.00  -0.00    -0.13  -0.00  -0.00
    12   6    -0.14   0.00   0.00    -0.07   0.00  -0.00     0.02  -0.00  -0.00
    13   6    -0.05   0.00   0.00     0.16   0.00  -0.00     0.12  -0.00   0.00
    14   6     0.09   0.00   0.00     0.10  -0.00  -0.00    -0.06  -0.00   0.00
    15   6     0.21   0.00   0.00    -0.00   0.00   0.00     0.03   0.00   0.00
    16   6     0.09  -0.00   0.00    -0.10  -0.00   0.00    -0.06   0.00   0.00
    17   1     0.29   0.00  -0.00    -0.00   0.00   0.00     0.21   0.00   0.00
    18   1    -0.25   0.00   0.00    -0.10   0.00  -0.00     0.13  -0.00  -0.00
    19   1    -0.09   0.00   0.00     0.32   0.00  -0.00     0.33  -0.00   0.00
    20   6     0.09  -0.00  -0.00     0.10   0.00   0.00     0.06  -0.00   0.00
    21   6     0.21   0.00  -0.00     0.00  -0.00   0.00    -0.03  -0.00   0.00
    22   6     0.09   0.00  -0.00    -0.10   0.00  -0.00     0.06   0.00   0.00
    23   1     0.29   0.00   0.00     0.00  -0.00   0.00    -0.21  -0.00   0.00
    24   6    -0.05   0.00  -0.00    -0.16  -0.00  -0.00    -0.12   0.00   0.00
    25   6    -0.14   0.00  -0.00     0.07  -0.00  -0.00    -0.02   0.00  -0.00
    26   6    -0.05  -0.00  -0.00     0.16  -0.00  -0.00     0.13   0.00  -0.00
    27   1    -0.09   0.00  -0.00    -0.32  -0.00  -0.00    -0.33   0.00   0.00
    28   1    -0.25   0.00  -0.00     0.10  -0.00  -0.00    -0.13   0.00  -0.00
    29   6     0.13  -0.00  -0.00    -0.13  -0.00  -0.00    -0.08   0.00  -0.00
    30   1     0.25  -0.00   0.00    -0.23  -0.00  -0.00    -0.11  -0.00   0.00
    31   6     0.13  -0.00   0.00     0.13   0.00  -0.00     0.08  -0.00  -0.00
    32   1     0.25  -0.00  -0.00     0.23   0.00  -0.00     0.11   0.00   0.00
    33   6    -0.05  -0.00  -0.00    -0.16   0.00   0.00     0.12   0.00   0.00
    34   6    -0.14  -0.00  -0.00     0.07   0.00   0.00     0.02   0.00  -0.00
    35   1    -0.25  -0.00   0.00     0.10   0.00   0.00     0.13  -0.00  -0.00
    36   6    -0.05  -0.00   0.00     0.16   0.00   0.00    -0.13   0.00  -0.00
    37   1    -0.09  -0.00  -0.00    -0.32   0.00   0.00     0.33   0.00  -0.00
    38   6     0.13   0.00  -0.00     0.13   0.00   0.00    -0.08  -0.00  -0.00
    39   1     0.25   0.00   0.00     0.23  -0.00   0.00    -0.11   0.00  -0.00
    40   6    -0.05  -0.00  -0.00    -0.16  -0.00   0.00     0.13  -0.00  -0.00
    41   6    -0.05  -0.00   0.00     0.16  -0.00   0.00    -0.12  -0.00   0.00
    42   6    -0.14  -0.00   0.00    -0.07  -0.00   0.00    -0.02  -0.00  -0.00
    43   1    -0.25  -0.00  -0.00    -0.10  -0.00   0.00    -0.13   0.00  -0.00
    44   6     0.13   0.00   0.00    -0.13  -0.00   0.00     0.08   0.00  -0.00
    45   1     0.25   0.00  -0.00    -0.23   0.00   0.00     0.11  -0.00  -0.00
    46   1    -0.09  -0.00   0.00     0.32  -0.00   0.00    -0.33  -0.00  -0.00
                     10                     11                     12
                      A                      A                      A
 Frequencies --    282.0470               319.5687               326.8479
 Red. masses --      5.8782                 8.5529                 8.6575
 Frc consts  --      0.2755                 0.5146                 0.5449
 IR Inten    --      4.6113                 0.0000                 0.0000
  Atom  AN      X      Y      Z        X      Y      Z        X      Y      Z
     1   6     0.00  -0.03  -0.02    -0.00  -0.12  -0.06     0.00   0.01  -0.15
     2   6    -0.00  -0.10  -0.03     0.00  -0.08  -0.08     0.00   0.07  -0.07
     3   6    -0.00  -0.13  -0.00     0.00   0.00  -0.07    -0.00   0.02   0.00
     4   6    -0.00  -0.13   0.00     0.00   0.00   0.07     0.00  -0.02   0.00
     5   6    -0.00  -0.10   0.03     0.00  -0.08   0.08    -0.00  -0.07  -0.07
     6   6     0.00  -0.03   0.02    -0.00  -0.12   0.06    -0.00  -0.01  -0.15
     7   6    -0.00  -0.10   0.03     0.00   0.08  -0.08    -0.00   0.07   0.07
     8   6    -0.00  -0.10  -0.03     0.00   0.08   0.08     0.00  -0.07   0.07
     9   6    -0.00  -0.03  -0.02    -0.00   0.12   0.06     0.00  -0.01   0.15
    10   6    -0.00  -0.03   0.02    -0.00   0.12  -0.06    -0.00   0.01   0.15
    11   6     0.00   0.08  -0.07    -0.00   0.12   0.10     0.00  -0.02   0.19
    12   6     0.00   0.07  -0.11     0.00   0.12   0.16    -0.00  -0.03   0.12
    13   6     0.00   0.00  -0.13     0.00   0.12   0.15     0.00  -0.09   0.07
    14   6     0.00  -0.10  -0.04    -0.00   0.08   0.14     0.00  -0.10   0.05
    15   6     0.00  -0.10   0.00    -0.00   0.00   0.11    -0.00  -0.14   0.00
    16   6     0.00  -0.10   0.04     0.00  -0.08   0.14    -0.00  -0.10  -0.05
    17   1     0.00  -0.10  -0.00    -0.00   0.00   0.00    -0.00  -0.13  -0.00
    18   1     0.00   0.10  -0.12     0.00   0.10   0.17    -0.00   0.04   0.08
    19   1    -0.00   0.00  -0.23     0.00   0.12   0.12    -0.00  -0.09   0.05
    20   6     0.00  -0.10  -0.04     0.00  -0.08  -0.14     0.00   0.10  -0.05
    21   6     0.00  -0.10  -0.00    -0.00   0.00  -0.11     0.00   0.14   0.00
    22   6     0.00  -0.10   0.04    -0.00   0.08  -0.14    -0.00   0.10   0.05
    23   1     0.00  -0.10   0.00    -0.00   0.00  -0.00     0.00   0.13  -0.00
    24   6     0.00   0.00   0.13     0.00   0.12  -0.15    -0.00   0.09   0.07
    25   6     0.00   0.07   0.11     0.00   0.12  -0.16     0.00   0.03   0.12
    26   6     0.00   0.08   0.07    -0.00   0.12  -0.10    -0.00   0.02   0.19
    27   1    -0.00   0.00   0.23     0.00   0.12  -0.12     0.00   0.09   0.05
    28   1     0.00   0.10   0.12     0.00   0.10  -0.17     0.00  -0.04   0.08
    29   6    -0.00   0.17  -0.03     0.00   0.06   0.06    -0.00   0.00   0.23
    30   1    -0.00   0.23  -0.07     0.00  -0.01   0.10    -0.00   0.03   0.22
    31   6    -0.00   0.17   0.03     0.00   0.06  -0.06     0.00  -0.00   0.23
    32   1    -0.00   0.23   0.07     0.00  -0.01  -0.10     0.00  -0.03   0.22
    33   6    -0.00   0.00   0.13     0.00  -0.12   0.15    -0.00  -0.09  -0.07
    34   6    -0.00   0.07   0.11     0.00  -0.12   0.16     0.00  -0.03  -0.12
    35   1    -0.00   0.10   0.12     0.00  -0.10   0.17     0.00   0.04  -0.08
    36   6     0.00   0.08   0.07    -0.00  -0.12   0.10    -0.00  -0.02  -0.19
    37   1    -0.00   0.00   0.23     0.00  -0.12   0.12     0.00  -0.09  -0.05
    38   6    -0.00   0.17   0.03     0.00  -0.06   0.06    -0.00   0.00  -0.23
    39   1    -0.00   0.23   0.07     0.00   0.01   0.10    -0.00   0.03  -0.22
    40   6     0.00   0.08  -0.07    -0.00  -0.12  -0.10     0.00   0.02  -0.19
    41   6    -0.00   0.00  -0.13     0.00  -0.12  -0.15     0.00   0.09  -0.07
    42   6    -0.00   0.07  -0.11     0.00  -0.12  -0.16    -0.00   0.03  -0.12
    43   1    -0.00   0.10  -0.12     0.00  -0.10  -0.17    -0.00  -0.04  -0.08
    44   6    -0.00   0.17  -0.03     0.00  -0.06  -0.06     0.00  -0.00  -0.23
    45   1    -0.00   0.23  -0.07     0.00   0.01  -0.10     0.00  -0.03  -0.22
    46   1    -0.00   0.00  -0.23     0.00  -0.12  -0.12    -0.00   0.09  -0.05
                     13                     14                     15
                      A                      A                      A
 Frequencies --    327.5378               334.8869               342.2575
 Red. masses --      4.6048                 5.1870                 5.5013
 Frc consts  --      0.2911                 0.3427                 0.3797
 IR Inten    --      0.0000                 0.0000                 7.0568
  Atom  AN      X      Y      Z        X      Y      Z        X      Y      Z
     1   6     0.03  -0.00  -0.00     0.13  -0.00   0.00    -0.17   0.00   0.00
     2   6    -0.07  -0.00  -0.00     0.19  -0.00   0.00     0.07   0.00   0.00
     3   6    -0.00   0.00  -0.00     0.00  -0.00   0.00     0.27  -0.00   0.00
     4   6    -0.00   0.00   0.00    -0.00   0.00   0.00     0.27  -0.00  -0.00
     5   6    -0.07  -0.00   0.00    -0.19   0.00   0.00     0.07   0.00  -0.00
     6   6     0.03  -0.00   0.00    -0.13   0.00   0.00    -0.17   0.00  -0.00
     7   6     0.07   0.00  -0.00    -0.19  -0.00  -0.00     0.07  -0.00   0.00
     8   6     0.07   0.00   0.00     0.19   0.00  -0.00     0.07  -0.00  -0.00
     9   6    -0.03   0.00   0.00     0.13   0.00  -0.00    -0.17  -0.00  -0.00
    10   6    -0.03   0.00  -0.00    -0.13  -0.00  -0.00    -0.17  -0.00   0.00
    11   6    -0.10   0.00   0.00     0.08   0.00  -0.00    -0.14  -0.00  -0.00
    12   6    -0.15   0.00   0.00    -0.10   0.00  -0.00     0.03  -0.00  -0.00
    13   6     0.11   0.00   0.00    -0.02   0.00  -0.00     0.04  -0.00  -0.00
    14   6     0.15   0.00   0.00     0.16   0.00  -0.00    -0.02  -0.00  -0.00
    15   6     0.00  -0.00   0.00     0.00   0.00  -0.00    -0.11  -0.00  -0.00
    16   6    -0.15  -0.00  -0.00    -0.16   0.00   0.00    -0.02   0.00  -0.00
    17   1    -0.00  -0.00  -0.00     0.00   0.00  -0.00    -0.20  -0.00   0.00
    18   1    -0.30   0.00   0.00    -0.33  -0.00  -0.00     0.17  -0.00  -0.00
    19   1     0.15   0.00   0.00    -0.21   0.00  -0.00     0.15  -0.00  -0.00
    20   6    -0.15  -0.00   0.00     0.16  -0.00   0.00    -0.02   0.00   0.00
    21   6     0.00  -0.00  -0.00    -0.00  -0.00  -0.00    -0.11  -0.00   0.00
    22   6     0.15   0.00  -0.00    -0.16  -0.00  -0.00    -0.02  -0.00   0.00
    23   1    -0.00  -0.00   0.00    -0.00  -0.00  -0.00    -0.20  -0.00  -0.00
    24   6     0.11   0.00  -0.00     0.02  -0.00  -0.00     0.04  -0.00   0.00
    25   6    -0.15   0.00  -0.00     0.10  -0.00  -0.00     0.03  -0.00   0.00
    26   6    -0.10   0.00  -0.00    -0.08  -0.00  -0.00    -0.14  -0.00   0.00
    27   1     0.15   0.00  -0.00     0.21  -0.00  -0.00     0.15  -0.00   0.00
    28   1    -0.30   0.00  -0.00     0.33   0.00  -0.00     0.17  -0.00   0.00
    29   6     0.09  -0.00   0.00     0.02  -0.00  -0.00     0.06   0.00  -0.00
    30   1     0.24  -0.00   0.00    -0.01  -0.00  -0.00     0.28   0.00  -0.00
    31   6     0.09  -0.00  -0.00    -0.02   0.00  -0.00     0.06   0.00   0.00
    32   1     0.24  -0.00  -0.00     0.01   0.00  -0.00     0.28   0.00   0.00
    33   6    -0.11   0.00   0.00     0.02   0.00   0.00     0.04   0.00  -0.00
    34   6     0.15  -0.00   0.00     0.10   0.00   0.00     0.03   0.00  -0.00
    35   1     0.30  -0.00   0.00     0.33  -0.00   0.00     0.17   0.00  -0.00
    36   6     0.10  -0.00   0.00    -0.08   0.00   0.00    -0.14   0.00  -0.00
    37   1    -0.15  -0.00   0.00     0.21   0.00   0.00     0.15   0.00  -0.00
    38   6    -0.09  -0.00   0.00    -0.02  -0.00   0.00     0.06   0.00  -0.00
    39   1    -0.24   0.00   0.00     0.01  -0.00   0.00     0.28  -0.00  -0.00
    40   6     0.10  -0.00  -0.00     0.08  -0.00   0.00    -0.14   0.00   0.00
    41   6    -0.11   0.00  -0.00    -0.02  -0.00   0.00     0.04   0.00   0.00
    42   6     0.15  -0.00  -0.00    -0.10  -0.00   0.00     0.03   0.00   0.00
    43   1     0.30  -0.00  -0.00    -0.33   0.00   0.00     0.17   0.00   0.00
    44   6    -0.09  -0.00  -0.00     0.02   0.00   0.00     0.06   0.00   0.00
    45   1    -0.24   0.00  -0.00    -0.01   0.00   0.00     0.28  -0.00   0.00
    46   1    -0.15  -0.00  -0.00    -0.21  -0.00   0.00     0.15   0.00   0.00
                     16                     17                     18
                      A                      A                      A
 Frequencies --    344.5108               400.4143               427.3095
 Red. masses --      4.2466                 6.1092                 5.9062
 Frc consts  --      0.2970                 0.5771                 0.6354
 IR Inten    --      0.0000                 5.3193                 0.0000
  Atom  AN      X      Y      Z        X      Y      Z        X      Y      Z
     1   6     0.02   0.00  -0.00    -0.00   0.03   0.10    -0.00  -0.02   0.01
     2   6     0.13   0.00  -0.00     0.00   0.03   0.08    -0.00  -0.11  -0.00
     3   6     0.10   0.00  -0.00    -0.00  -0.00   0.11     0.00  -0.05  -0.00
[...]
    25773.4324    0.618536D+00
    25776.4324    0.174129D+00
    25779.4324    0.460271D-01
    25782.4324    0.298863D-01
    25785.4324    0.250051D-01
    25788.4324    0.118878D-01
    25791.4324    0.197037D-01
    25794.4324    0.273759D+00
    25797.4324    0.209406D+01
    25800.4324    0.737741D+01
    25803.4324    0.119380D+02
    25806.4324    0.893109D+01
    25809.4324    0.324714D+01
    25812.4324    0.813559D+00
    25815.4324    0.340852D+00
    25818.4324    0.174023D+00
    25821.4324    0.588700D-01
    25824.4324    0.458558D-01
    25827.4324    0.336756D+00
    25830.4324    0.145448D+01
    25833.4324    0.289764D+01
    25836.4324    0.267498D+01
    25839.4324    0.119705D+01
    25842.4324    0.320482D+00
    25845.4324    0.175655D+00
    25848.4324    0.912291D+00
    25851.4324    0.353816D+01
    25854.4324    0.641378D+01
    25857.4324    0.541131D+01
    25860.4324    0.217388D+01
    25863.4324    0.460248D+00
    25866.4324    0.815094D-01
    25869.4324    0.527930D-01
    25872.4324    0.132720D+00
    25875.4324    0.199575D+00
    25878.4324    0.140073D+00
    25881.4324    0.460257D-01
    25884.4324    0.791926D-02
    25887.4324    0.138911D-02
    25890.4324    0.311432D-02
    25893.4324    0.386274D-01
    25896.4324    0.248243D+00
    25899.4324    0.737261D+00
    25902.4324    0.100985D+01
    25905.4324    0.639731D+00
    25908.4324    0.206804D+00
    25911.4324    0.140458D+00
    25914.4324    0.294791D+00
    25917.4324    0.345002D+00
    25920.4324    0.186965D+00
    25923.4324    0.145250D+00
    25926.4324    0.210616D+01
    25929.4324    0.214876D+02
    25932.4324    0.101185D+03
    25935.4324    0.218599D+03
    25938.4324    0.216760D+03
    25941.4324    0.989027D+02
    25944.4324    0.209457D+02
    25947.4324    0.211809D+01
    25950.4324    0.259809D-01
    25953.4324    0.230741D-02
    25956.4324    0.232862D-03
    25959.4324    0.162480D-03
    25962.4324    0.500937D-03
    25965.4324    0.409337D-02
    25968.4324    0.419817D-01
    25971.4324    0.282226D+00
    25974.4324    0.931215D+00
    25977.4324    0.142641D+01
    25980.4324    0.100425D+01
    25983.4324    0.324353D+00
    25986.4324    0.480846D-01
    25989.4324    0.343686D-02
    25992.4324    0.347980D-03
    25995.4324    0.870890D-03
    25998.4324    0.561750D-02
    26001.4324    0.241437D-01
    26004.4324    0.487354D-01
    26007.4324    0.451829D-01
    26010.4324    0.257605D+00
    26013.4324    0.446105D+01
    26016.4324    0.382206D+02
    26019.4324    0.150274D+03
    26022.4324    0.270908D+03
    26025.4324    0.223925D+03
    26028.4324    0.848666D+02
    26031.4324    0.147632D+02
    26034.4324    0.124412D+01
    26037.4324    0.182548D+00
    26040.4324    0.424294D+00
    26043.4324    0.727610D+00
    26046.4324    0.661094D+00
    26049.4324    0.283616D+00
    26052.4324    0.560853D-01
    26055.4324    0.513704D-02
    26058.4324    0.103244D-03
    26061.4324    0.112209D-03
    26064.4324    0.964817D-04
    26067.4324    0.154788D-03
    26070.4324    0.240647D-03
    26073.4324    0.352681D-03
    26076.4324    0.570479D-03
    26079.4324    0.954298D-02
    26082.4324    0.165350D+00
    26085.4324    0.139418D+01
    26088.4324    0.539871D+01
    26091.4324    0.958568D+01
    26094.4324    0.780367D+01
    26097.4324    0.291306D+01
    26100.4324    0.499303D+00
    26103.4324    0.402756D-01
    26106.4324    0.770305D-03
    26109.4324    0.235129D-03
    26112.4324    0.393089D-04
    26115.4324    0.684417D-04
    26118.4324    0.390094D-03
    26121.4324    0.117456D-02
    26124.4324    0.191850D-02
    26127.4324    0.479610D-02
    26130.4324    0.424847D-01
    26133.4324    0.232917D+00
    26136.4324    0.591518D+00
    26139.4324    0.689039D+00
    26142.4324    0.368292D+00
    26145.4324    0.909304D-01
    26148.4324    0.110817D-01
    26151.4324    0.548496D-03
    26154.4324    0.188303D-03
    26157.4324    0.165720D-03
    26160.4324    0.246872D-03
    26163.4324    0.190757D-03
    26166.4324    0.676872D-04
    26169.4324    0.110436D-04
    26172.4324    0.106655D-05
    26175.4324    0.906648D-06
    26178.4324    0.159737D-03
    26181.4324    0.249665D-02
    26184.4324    0.180559D-01
    26187.4324    0.599079D-01
    26190.4324    0.911561D-01
    26193.4324    0.636165D-01
    26196.4324    0.203673D-01
    26199.4324    0.299265D-02
    26202.4324    0.202975D-03
    26205.4324    0.121863D-04
    26208.4324    0.883294D-04
    26211.4324    0.305689D-03
    26214.4324    0.487300D-03
    26217.4324    0.356502D-03
    26220.4324    0.119980D-03
    26223.4324    0.191992D-04
    26226.4324    0.201809D-05
    26229.4324    0.137788D-03
    26232.4324    0.349952D-02
    26235.4324    0.408427D-01
    26238.4324    0.218560D+00
    26241.4324    0.536250D+00
    26244.4324    0.603261D+00
    26247.4324    0.311164D+00
    26250.4324    0.736074D-01
    26253.4324    0.804914D-02
    26256.4324    0.231653D-02
    26259.4324    0.346460D-01
    26262.4324    0.248730D+00
    26265.4324    0.820589D+00
    26268.4324    0.124140D+01
    26271.4324    0.861078D+00
    26274.4324    0.273851D+00
    26277.4324    0.399333D-01
    26280.4324    0.267075D-02
    26283.4324    0.531319D-06
    26286.4324    0.458310D-06
    26289.4324    0.776619D-05
    26292.4324    0.862901D-04
    26295.4324    0.440554D-03
    26298.4324    0.103129D-02
    26301.4324    0.110688D-02
    26304.4324    0.544708D-03
    26307.4324    0.122905D-03
    26310.4324    0.127155D-04
    26313.4324    0.843086D-09
    26316.4324    0.589446D-09
    26319.4324    0.198298D-09
    26322.4324    0.175076D-09
    26325.4324    0.124170D-08
    26328.4324    0.481309D-08
    26331.4324    0.748187D-06
    26334.4324    0.138395D-04
    26337.4324    0.124149D-03
    26340.4324    0.535025D-03
    26343.4324    0.110343D-02
    26346.4324    0.108215D-02
    26349.4324    0.500870D-03
    26352.4324    0.108615D-03
    26355.4324    0.109680D-04
    26358.4324    0.486553D-10
    26361.4324    0.531570D-10
    26364.4324    0.271996D-10
    26367.4324    0.101831D-10
    26370.4324    0.130893D-10
    26373.4324    0.174039D-10
    26376.4324    0.111574D-10
    26379.4324    0.327958D-11
    26382.4324    0.441993D-12
    26385.4324    0.218163D-11
    26388.4324    0.671055D-10
    26391.4324    0.946427D-09
    26394.4324    0.612020D-08
    26397.4324    0.181477D-07
    26400.4324    0.246789D-07
    26403.4324    0.153996D-07
    26406.4324    0.441736D-08
    26409.4324    0.592091D-09
    26412.4324    0.898623D-10
    26415.4324    0.575936D-09
    26418.4324    0.173216D-08
    26421.4324    0.238947D-08
    26424.4324    0.151132D-08
    26427.4324    0.438278D-09
    26430.4324    0.582755D-10
    26433.4324    0.000000D+00
    26436.4324    0.000000D+00
    26439.4324    0.000000D+00
    26442.4324    0.000000D+00
    26445.4324    0.000000D+00
    26448.4324    0.000000D+00
    26451.4324    0.281326D-03
    26454.4324    0.712711D-02
    26457.4324    0.827862D-01
    26460.4324    0.440903D+00
    26463.4324    0.107664D+01
    26466.4324    0.120542D+01
    26469.4324    0.618796D+00
    26472.4324    0.145646D+00
    26475.4324    0.157177D-01
    26478.4324    0.000000D+00
    26481.4324    0.000000D+00
    26484.4324    0.000000D+00
    26487.4324    0.000000D+00
    26490.4324    0.000000D+00
    26493.4324    0.000000D+00
    26496.4324    0.000000D+00
    26499.4324    0.000000D+00
    26502.4324    0.000000D+00
    26505.4324    0.000000D+00
    26508.4324    0.000000D+00
    26511.4324    0.123887D-10
    26514.4324    0.319229D-09
    26517.4324    0.377157D-08
    26520.4324    0.204307D-07
    26523.4324    0.507440D-07
    26526.4324    0.577866D-07
    26529.4324    0.301725D-07
    26532.4324    0.722333D-08
    26535.4324    0.792874D-09
    26538.4324    0.000000D+00
    26541.4324    0.000000D+00
    26544.4324    0.000000D+00
    26547.4324    0.000000D+00
    26550.4324    0.000000D+00
    26553.4324    0.000000D+00
    26556.4324    0.000000D+00
    26559.4324    0.000000D+00
    26562.4324    0.000000D+00
    26565.4324    0.000000D+00
    26568.4324    0.000000D+00
    26571.4324    0.000000D+00
    26574.4324    0.000000D+00
    26577.4324    0.000000D+00
    26580.4324    0.000000D+00
    26583.4324    0.000000D+00
    26586.4324    0.000000D+00
    26589.4324    0.000000D+00
    26592.4324    0.000000D+00
    26595.4324    0.000000D+00
    26598.4324    0.000000D+00
    26601.4324    0.000000D+00
    26604.4324    0.000000D+00
    26607.4324    0.000000D+00
    26610.4324    0.000000D+00
    26613.4324    0.000000D+00
    26616.4324    0.000000D+00
    26619.4324    0.000000D+00
    26622.4324    0.000000D+00
    26625.4324    0.000000D+00
    26628.4324    0.000000D+00
    26631.4324    0.000000D+00
    26634.4324    0.000000D+00
    26637.4324    0.000000D+00
    26640.4324    0.000000D+00
    26643.4324    0.000000D+00
    26646.4324    0.000000D+00
    26649.4324    0.000000D+00
    26652.4324    0.000000D+00
    26655.4324    0.000000D+00
    26658.4324    0.000000D+00
    26661.4324    0.000000D+00
    26664.4324    0.000000D+00
    26667.4324    0.000000D+00
    26670.4324    0.000000D+00
    26673.4324    0.000000D+00
    26676.4324    0.000000D+00
    26679.4324    0.000000D+00
    26682.4324    0.000000D+00
    26685.4324    0.000000D+00
    26688.4324    0.000000D+00
    26691.4324    0.000000D+00
    26694.4324    0.000000D+00
    26697.4324    0.000000D+00
    26700.4324    0.000000D+00
    26703.4324    0.000000D+00
    26706.4324    0.000000D+00
    26709.4324    0.000000D+00
    26712.4324    0.000000D+00
    26715.4324    0.000000D+00
    26718.4324    0.000000D+00
    26721.4324    0.000000D+00
    26724.4324    0.000000D+00
    26727.4324    0.000000D+00
    26730.4324    0.000000D+00
    26733.4324    0.000000D+00
    26736.4324    0.000000D+00
    26739.4324    0.000000D+00
    26742.4324    0.000000D+00
    26745.4324    0.000000D+00
    26748.4324    0.000000D+00
    26751.4324    0.000000D+00
    26754.4324    0.000000D+00
    26757.4324    0.000000D+00
    26760.4324    0.000000D+00
    26763.4324    0.000000D+00
    26766.4324    0.000000D+00
    26769.4324    0.000000D+00
    26772.4324    0.000000D+00
    26775.4324    0.000000D+00
    26778.4324    0.000000D+00
    26781.4324    0.000000D+00
    26784.4324    0.000000D+00
    26787.4324    0.000000D+00
    26790.4324    0.000000D+00
    26793.4324    0.000000D+00
    26796.4324    0.000000D+00
    26799.4324    0.000000D+00
    26802.4324    0.000000D+00
    26805.4324    0.000000D+00
    26808.4324    0.000000D+00
    26811.4324    0.000000D+00
    26814.4324    0.000000D+00
    26817.4324    0.000000D+00
    26820.4324    0.000000D+00
    26823.4324    0.000000D+00
    26826.4324    0.000000D+00
    26829.4324    0.000000D+00
    26832.4324    0.000000D+00
    26835.4324    0.000000D+00
    26838.4324    0.000000D+00
    26841.4324    0.000000D+00
    26844.4324    0.000000D+00
    26847.4324    0.000000D+00
    26850.4324    0.000000D+00
    26853.4324    0.000000D+00
    26856.4324    0.000000D+00
    26859.4324    0.000000D+00
    26862.4324    0.000000D+00
    26865.4324    0.000000D+00
    26868.4324    0.000000D+00
    26871.4324    0.000000D+00
    26874.4324    0.000000D+00
    26877.4324    0.000000D+00
    26880.4324    0.000000D+00
    26883.4324    0.000000D+00
    26886.4324    0.000000D+00
    26889.4324    0.000000D+00
    26892.4324    0.000000D+00
    26895.4324    0.000000D+00
    26898.4324    0.000000D+00
    26901.4324    0.000000D+00
    26904.4324    0.000000D+00
    26907.4324    0.000000D+00
    26910.4324    0.000000D+00
    26913.4324    0.000000D+00
    26916.4324    0.000000D+00
    26919.4324    0.000000D+00
    26922.4324    0.000000D+00
    26925.4324    0.000000D+00
    26928.4324    0.000000D+00
    26931.4324    0.000000D+00
    26934.4324    0.000000D+00
    26937.4324    0.000000D+00
    26940.4324    0.000000D+00
    26943.4324    0.000000D+00
    26946.4324    0.000000D+00
    26949.4324    0.000000D+00
    26952.4324    0.000000D+00
    26955.4324    0.000000D+00
    26958.4324    0.000000D+00
    26961.4324    0.000000D+00
    26964.4324    0.000000D+00
    26967.4324    0.000000D+00
    26970.4324    0.000000D+00
    26973.4324    0.000000D+00
    26976.4324    0.000000D+00
    26979.4324    0.000000D+00
    26982.4324    0.000000D+00
    26985.4324    0.000000D+00
    26988.4324    0.000000D+00
    26991.4324    0.000000D+00
    26994.4324    0.000000D+00
    26997.4324    0.000000D+00
    27000.4324    0.000000D+00
    27003.4324    0.000000D+00
    27006.4324    0.000000D+00
    27009.4324    0.000000D+00
    27012.4324    0.000000D+00
    27015.4324    0.000000D+00
    27018.4324    0.000000D+00
    27021.4324    0.000000D+00
    27024.4324    0.000000D+00
    27027.4324    0.000000D+00
    27030.4324    0.000000D+00
    27033.4324    0.000000D+00
    27036.4324    0.000000D+00
    27039.4324    0.000000D+00
    27042.4324    0.000000D+00
    27045.4324    0.000000D+00
    27048.4324    0.000000D+00
    27051.4324    0.000000D+00
    27054.4324    0.000000D+00
    27057.4324    0.000000D+00
    27060.4324    0.000000D+00
    27063.4324    0.000000D+00
    27066.4324    0.000000D+00
    27069.4324    0.000000D+00
    27072.4324    0.000000D+00
    27075.4324    0.000000D+00
    27078.4324    0.000000D+00
    27081.4324    0.000000D+00
    27084.4324    0.000000D+00
    27087.4324    0.000000D+00
    27090.4324    0.000000D+00
    27093.4324    0.000000D+00
    27096.4324    0.000000D+00
    27099.4324    0.000000D+00
    27102.4324    0.000000D+00
    27105.4324    0.000000D+00
    27108.4324    0.000000D+00
    27111.4324    0.000000D+00
    27114.4324    0.000000D+00
    27117.4324    0.000000D+00
    27120.4324    0.000000D+00
    27123.4324    0.000000D+00
    27126.4324    0.000000D+00
    27129.4324    0.000000D+00
    27132.4324    0.000000D+00
    27135.4324    0.000000D+00
    27138.4324    0.000000D+00
    27141.4324    0.000000D+00
    27144.4324    0.000000D+00
    27147.4324    0.000000D+00
    27150.4324    0.000000D+00
    27153.4324    0.000000D+00
    27156.4324    0.000000D+00
    27159.4324    0.000000D+00
    27162.4324    0.000000D+00
    27165.4324    0.000000D+00
    27168.4324    0.000000D+00
    27171.4324    0.000000D+00
    27174.4324    0.000000D+00
    27177.4324    0.000000D+00
    27180.4324    0.000000D+00
    27183.4324    0.000000D+00
    27186.4324    0.000000D+00
    27189.4324    0.000000D+00
    27192.4324    0.000000D+00
    27195.4324    0.000000D+00
    27198.4324    0.000000D+00
    27201.4324    0.000000D+00
    27204.4324    0.000000D+00
    27207.4324    0.000000D+00
    27210.4324    0.000000D+00
    27213.4324    0.000000D+00
    27216.4324    0.000000D+00
    27219.4324    0.000000D+00
    27222.4324    0.000000D+00
    27225.4324    0.000000D+00
    27228.4324    0.000000D+00
    27231.4324    0.000000D+00
    27234.4324    0.000000D+00
    27237.4324    0.000000D+00
    27240.4324    0.000000D+00
    27243.4324    0.000000D+00
    27246.4324    0.000000D+00
    27249.4324    0.000000D+00
    27252.4324    0.000000D+00
    27255.4324    0.000000D+00
    27258.4324    0.000000D+00
    27261.4324    0.000000D+00
    27264.4324    0.000000D+00
    27267.4324    0.000000D+00
    27270.4324    0.000000D+00
    27273.4324    0.000000D+00
    27276.4324    0.000000D+00
    27279.4324    0.000000D+00
    27282.4324    0.000000D+00
    27285.4324    0.000000D+00
    27288.4324    0.000000D+00
    27291.4324    0.000000D+00
    27294.4324    0.000000D+00
    27297.4324    0.000000D+00
    27300.4324    0.000000D+00
    27303.4324    0.000000D+00
    27306.4324    0.000000D+00
    27309.4324    0.000000D+00
    27312.4324    0.000000D+00
    27315.4324    0.000000D+00
    27318.4324    0.000000D+00
    27321.4324    0.000000D+00
    27324.4324    0.000000D+00
    27327.4324    0.000000D+00
    27330.4324    0.000000D+00
    27333.4324    0.000000D+00
    27336.4324    0.000000D+00
    27339.4324    0.000000D+00
    27342.4324    0.000000D+00
    27345.4324    0.000000D+00
    27348.4324    0.000000D+00
    27351.4324    0.000000D+00
    27354.4324    0.000000D+00
    27357.4324    0.000000D+00
    27360.4324    0.000000D+00
    27363.4324    0.000000D+00
    27366.4324    0.000000D+00
    27369.4324    0.000000D+00
    27372.4324    0.000000D+00
    27375.4324    0.000000D+00
    27378.4324    0.000000D+00
    27381.4324    0.000000D+00
    27384.4324    0.000000D+00
    27387.4324    0.000000D+00
    27390.4324    0.000000D+00
    27393.4324    0.000000D+00
    27396.4324    0.000000D+00
    27399.4324    0.000000D+00
    27402.4324    0.000000D+00
    27405.4324    0.000000D+00
    27408.4324    0.000000D+00
    27411.4324    0.000000D+00
    27414.4324    0.000000D+00
    27417.4324    0.000000D+00
    27420.4324    0.000000D+00
    27423.4324    0.000000D+00
    27426.4324    0.000000D+00
    27429.4324    0.000000D+00
    27432.4324    0.000000D+00
    27435.4324    0.000000D+00
    27438.4324    0.000000D+00
    27441.4324    0.000000D+00
    27444.4324    0.000000D+00
    27447.4324    0.000000D+00
    27450.4324    0.000000D+00
    27453.4324    0.000000D+00
    27456.4324    0.000000D+00
    27459.4324    0.000000D+00
    27462.4324    0.000000D+00
    27465.4324    0.000000D+00
    27468.4324    0.000000D+00
    27471.4324    0.000000D+00
    27474.4324    0.000000D+00
    27477.4324    0.000000D+00
    27480.4324    0.000000D+00
    27483.4324    0.000000D+00
    27486.4324    0.000000D+00
    27489.4324    0.000000D+00
    27492.4324    0.000000D+00
    27495.4324    0.000000D+00
    27498.4324    0.000000D+00
    27501.4324    0.000000D+00
    27504.4324    0.000000D+00
    27507.4324    0.000000D+00
    27510.4324    0.000000D+00
    27513.4324    0.000000D+00
    27516.4324    0.000000D+00
    27519.4324    0.000000D+00
    27522.4324    0.000000D+00
    27525.4324    0.000000D+00
 -----------------------------

 Leave Link  718 at Wed Mar  1 22:14:59 2023, MaxMem=  2013265920 cpu:             420.7 elap:             105.6
 (Enter /opt//g16/l9999.exe)
 Dipole is zero, so no output in dipole orientation.

 ----------------------------------------------------------------------

 Electric dipole moment (input orientation):
 (Debye = 10**-18 statcoulomb cm , SI units = C m)
                  (au)            (Debye)         (10**-30 SI)
   Tot        0.000000D+00      0.000000D+00      0.000000D+00
   x          0.000000D+00      0.000000D+00      0.000000D+00
   y          0.000000D+00      0.000000D+00      0.000000D+00
   z          0.000000D+00      0.000000D+00      0.000000D+00

 Dipole polarizability, Alpha (input orientation).
 (esu units = cm**3 , SI units = C**2 m**2 J**-1)
 Alpha(0;0):
               (au)            (10**-24 esu)      (10**-40 SI)
   iso        0.432369D+03      0.640705D+02      0.712881D+02
   aniso      0.424957D+03      0.629721D+02      0.700659D+02
   xx         0.157948D+03      0.234055D+02      0.260421D+02
   yx         0.000000D+00      0.000000D+00      0.000000D+00
   yy         0.508622D+03      0.753700D+02      0.838605D+02
   zx         0.000000D+00      0.000000D+00      0.000000D+00
   zy         0.000000D+00      0.000000D+00      0.000000D+00
   zz         0.630538D+03      0.934360D+02      0.103962D+03

 ----------------------------------------------------------------------

 This type of calculation cannot be archived.


 ROSE IS A RED
 TY COBB IS BLUE
 'CAUSE PETE JUST HIT
 NO. 4592.
 Job cpu time:       0 days  0 hours  7 minutes  4.3 seconds.
 Elapsed time:       0 days  0 hours  1 minutes 46.7 seconds.
 File lengths (MBytes):  RWF=     10 Int=      0 D2E=      0 Chk=     80 Scr=      1
 Normal termination of Gaussian 16 at Wed Mar  1 22:14:59 2023.
